+ 0.5 0 1 cbr 500 ------- 0 0.0 3.0 0 0
- 0.5 0 1 cbr 500 ------- 0 0.0 3.0 0 0
+ 0.505 0 1 cbr 500 ------- 0 0.0 3.0 1 1
- 0.505 0 1 cbr 500 ------- 0 0.0 3.0 1 1
+ 0.51 0 1 cbr 500 ------- 0 0.0 3.0 2 2
- 0.51 0 1 cbr 500 ------- 0 0.0 3.0 2 2
r 0.514 0 1 cbr 500 ------- 0 0.0 3.0 0 0
+ 0.514 1 2 cbr 500 ------- 0 0.0 3.0 0 0
- 0.514 1 2 cbr 500 ------- 0 0.0 3.0 0 0
+ 0.515 0 1 cbr 500 ------- 0 0.0 3.0 3 3
- 0.515 0 1 cbr 500 ------- 0 0.0 3.0 3 3
r 0.519 0 1 cbr 500 ------- 0 0.0 3.0 1 1
+ 0.519 1 2 cbr 500 ------- 0 0.0 3.0 1 1
- 0.519 1 2 cbr 500 ------- 0 0.0 3.0 1 1
+ 0.52 0 1 cbr 500 ------- 0 0.0 3.0 4 4
- 0.52 0 1 cbr 500 ------- 0 0.0 3.0 4 4
r 0.524 0 1 cbr 500 ------- 0 0.0 3.0 2 2
+ 0.524 1 2 cbr 500 ------- 0 0.0 3.0 2 2
- 0.524 1 2 cbr 500 ------- 0 0.0 3.0 2 2
+ 0.525 0 1 cbr 500 ------- 0 0.0 3.0 5 5
- 0.525 0 1 cbr 500 ------- 0 0.0 3.0 5 5
r 0.528 1 2 cbr 500 ------- 0 0.0 3.0 0 0
+ 0.528 2 3 cbr 500 ------- 0 0.0 3.0 0 0
- 0.528 2 3 cbr 500 ------- 0 0.0 3.0 0 0
r 0.529 0 1 cbr 500 ------- 0 0.0 3.0 3 3
+ 0.529 1 2 cbr 500 ------- 0 0.0 3.0 3 3
- 0.529 1 2 cbr 500 ------- 0 0.0 3.0 3 3
+ 0.53 0 1 cbr 500 ------- 0 0.0 3.0 6 6
- 0.53 0 1 cbr 500 ------- 0 0.0 3.0 6 6
r 0.533 1 2 cbr 500 ------- 0 0.0 3.0 1 1
+ 0.533 2 3 cbr 500 ------- 0 0.0 3.0 1 1
- 0.533 2 3 cbr 500 ------- 0 0.0 3.0 1 1
r 0.534 0 1 cbr 500 ------- 0 0.0 3.0 4 4
+ 0.534 1 2 cbr 500 ------- 0 0.0 3.0 4 4
- 0.534 1 2 cbr 500 ------- 0 0.0 3.0 4 4
+ 0.535 0 1 cbr 500 ------- 0 0.0 3.0 7 7
- 0.535 0 1 cbr 500 ------- 0 0.0 3.0 7 7
r 0.538 1 2 cbr 500 ------- 0 0.0 3.0 2 2
+ 0.538 2 3 cbr 500 ------- 0 0.0 3.0 2 2
- 0.538 2 3 cbr 500 ------- 0 0.0 3.0 2 2
r 0.539 0 1 cbr 500 ------- 0 0.0 3.0 5 5
+ 0.539 1 2 cbr 500 ------- 0 0.0 3.0 5 5
- 0.539 1 2 cbr 500 ------- 0 0.0 3.0 5 5
+ 0.54 0 1 cbr 500 ------- 0 0.0 3.0 8 8
- 0.54 0 1 cbr 500 ------- 0 0.0 3.0 8 8
r 0.542 2 3 cbr 500 ------- 0 0.0 3.0 0 0
r 0.543 1 2 cbr 500 ------- 0 0.0 3.0 3 3
+ 0.543 2 3 cbr 500 ------- 0 0.0 3.0 3 3
- 0.543 2 3 cbr 500 ------- 0 0.0 3.0 3 3
r 0.544 0 1 cbr 500 ------- 0 0.0 3.0 6 6
+ 0.544 1 2 cbr 500 ------- 0 0.0 3.0 6 6
- 0.544 1 2 cbr 500 ------- 0 0.0 3.0 6 6
+ 0.545 0 1 cbr 500 ------- 0 0.0 3.0 9 9
- 0.545 0 1 cbr 500 ------- 0 0.0 3.0 9 9
r 0.547 2 3 cbr 500 ------- 0 0.0 3.0 1 1
r 0.548 1 2 cbr 500 ------- 0 0.0 3.0 4 4
+ 0.548 2 3 cbr 500 ------- 0 0.0 3.0 4 4
- 0.548 2 3 cbr 500 ------- 0 0.0 3.0 4 4
r 0.549 0 1 cbr 500 ------- 0 0.0 3.0 7 7
+ 0.549 1 2 cbr 500 ------- 0 0.0 3.0 7 7
- 0.549 1 2 cbr 500 ------- 0 0.0 3.0 7 7
+ 0.55 0 1 cbr 500 ------- 0 0.0 3.0 10 10
- 0.55 0 1 cbr 500 ------- 0 0.0 3.0 10 10
r 0.552 2 3 cbr 500 ------- 0 0.0 3.0 2 2
r 0.553 1 2 cbr 500 ------- 0 0.0 3.0 5 5
+ 0.553 2 3 cbr 500 ------- 0 0.0 3.0 5 5
- 0.553 2 3 cbr 500 ------- 0 0.0 3.0 5 5
r 0.554 0 1 cbr 500 ------- 0 0.0 3.0 8 8
+ 0.554 1 2 cbr 500 ------- 0 0.0 3.0 8 8
- 0.554 1 2 cbr 500 ------- 0 0.0 3.0 8 8
+ 0.555 0 1 cbr 500 ------- 0 0.0 3.0 11 11
- 0.555 0 1 cbr 500 ------- 0 0.0 3.0 11 11
r 0.557 2 3 cbr 500 ------- 0 0.0 3.0 3 3
r 0.558 1 2 cbr 500 ------- 0 0.0 3.0 6 6
+ 0.558 2 3 cbr 500 ------- 0 0.0 3.0 6 6
- 0.558 2 3 cbr 500 ------- 0 0.0 3.0 6 6
r 0.559 0 1 cbr 500 ------- 0 0.0 3.0 9 9
+ 0.559 1 2 cbr 500 ------- 0 0.0 3.0 9 9
- 0.559 1 2 cbr 500 ------- 0 0.0 3.0 9 9
+ 0.56 0 1 cbr 500 ------- 0 0.0 3.0 12 12
- 0.56 0 1 cbr 500 ------- 0 0.0 3.0 12 12
r 0.562 2 3 cbr 500 ------- 0 0.0 3.0 4 4
r 0.563 1 2 cbr 500 ------- 0 0.0 3.0 7 7
+ 0.563 2 3 cbr 500 ------- 0 0.0 3.0 7 7
- 0.563 2 3 cbr 500 ------- 0 0.0 3.0 7 7
r 0.564 0 1 cbr 500 ------- 0 0.0 3.0 10 10
+ 0.564 1 2 cbr 500 ------- 0 0.0 3.0 10 10
- 0.564 1 2 cbr 500 ------- 0 0.0 3.0 10 10
+ 0.565 0 1 cbr 500 ------- 0 0.0 3.0 13 13
- 0.565 0 1 cbr 500 ------- 0 0.0 3.0 13 13
r 0.567 2 3 cbr 500 ------- 0 0.0 3.0 5 5
r 0.568 1 2 cbr 500 ------- 0 0.0 3.0 8 8
+ 0.568 2 3 cbr 500 ------- 0 0.0 3.0 8 8
- 0.568 2 3 cbr 500 ------- 0 0.0 3.0 8 8
r 0.569 0 1 cbr 500 ------- 0 0.0 3.0 11 11
+ 0.569 1 2 cbr 500 ------- 0 0.0 3.0 11 11
- 0.569 1 2 cbr 500 ------- 0 0.0 3.0 11 11
+ 0.57 0 1 cbr 500 ------- 0 0.0 3.0 14 14
- 0.57 0 1 cbr 500 ------- 0 0.0 3.0 14 14
r 0.572 2 3 cbr 500 ------- 0 0.0 3.0 6 6
r 0.573 1 2 cbr 500 ------- 0 0.0 3.0 9 9
+ 0.573 2 3 cbr 500 ------- 0 0.0 3.0 9 9
- 0.573 2 3 cbr 500 ------- 0 0.0 3.0 9 9
r 0.574 0 1 cbr 500 ------- 0 0.0 3.0 12 12
+ 0.574 1 2 cbr 500 ------- 0 0.0 3.0 12 12
- 0.574 1 2 cbr 500 ------- 0 0.0 3.0 12 12
+ 0.575 0 1 cbr 500 ------- 0 0.0 3.0 15 15
- 0.575 0 1 cbr 500 ------- 0 0.0 3.0 15 15
r 0.577 2 3 cbr 500 ------- 0 0.0 3.0 7 7
r 0.578 1 2 cbr 500 ------- 0 0.0 3.0 10 10
+ 0.578 2 3 cbr 500 ------- 0 0.0 3.0 10 10
- 0.578 2 3 cbr 500 ------- 0 0.0 3.0 10 10
r 0.579 0 1 cbr 500 ------- 0 0.0 3.0 13 13
+ 0.579 1 2 cbr 500 ------- 0 0.0 3.0 13 13
- 0.579 1 2 cbr 500 ------- 0 0.0 3.0 13 13
+ 0.58 0 1 cbr 500 ------- 0 0.0 3.0 16 16
- 0.58 0 1 cbr 500 ------- 0 0.0 3.0 16 16
r 0.582 2 3 cbr 500 ------- 0 0.0 3.0 8 8
r 0.583 1 2 cbr 500 ------- 0 0.0 3.0 11 11
+ 0.583 2 3 cbr 500 ------- 0 0.0 3.0 11 11
- 0.583 2 3 cbr 500 ------- 0 0.0 3.0 11 11
r 0.584 0 1 cbr 500 ------- 0 0.0 3.0 14 14
+ 0.584 1 2 cbr 500 ------- 0 0.0 3.0 14 14
- 0.584 1 2 cbr 500 ------- 0 0.0 3.0 14 14
+ 0.585 0 1 cbr 500 ------- 0 0.0 3.0 17 17
- 0.585 0 1 cbr 500 ------- 0 0.0 3.0 17 17
r 0.587 2 3 cbr 500 ------- 0 0.0 3.0 9 9
r 0.588 1 2 cbr 500 ------- 0 0.0 3.0 12 12
+ 0.588 2 3 cbr 500 ------- 0 0.0 3.0 12 12
- 0.588 2 3 cbr 500 ------- 0 0.0 3.0 12 12
r 0.589 0 1 cbr 500 ------- 0 0.0 3.0 15 15
+ 0.589 1 2 cbr 500 ------- 0 0.0 3.0 15 15
- 0.589 1 2 cbr 500 ------- 0 0.0 3.0 15 15
+ 0.59 0 1 cbr 500 ------- 0 0.0 3.0 18 18
- 0.59 0 1 cbr 500 ------- 0 0.0 3.0 18 18
r 0.592 2 3 cbr 500 ------- 0 0.0 3.0 10 10
r 0.593 1 2 cbr 500 ------- 0 0.0 3.0 13 13
+ 0.593 2 3 cbr 500 ------- 0 0.0 3.0 13 13
- 0.593 2 3 cbr 500 ------- 0 0.0 3.0 13 13
r 0.594 0 1 cbr 500 ------- 0 0.0 3.0 16 16
+ 0.594 1 2 cbr 500 ------- 0 0.0 3.0 16 16
- 0.594 1 2 cbr 500 ------- 0 0.0 3.0 16 16
+ 0.595 0 1 cbr 500 ------- 0 0.0 3.0 19 19
- 0.595 0 1 cbr 500 ------- 0 0.0 3.0 19 19
r 0.597 2 3 cbr 500 ------- 0 0.0 3.0 11 11
r 0.598 1 2 cbr 500 ------- 0 0.0 3.0 14 14
+ 0.598 2 3 cbr 500 ------- 0 0.0 3.0 14 14
- 0.598 2 3 cbr 500 ------- 0 0.0 3.0 14 14
r 0.599 0 1 cbr 500 ------- 0 0.0 3.0 17 17
+ 0.599 1 2 cbr 500 ------- 0 0.0 3.0 17 17
- 0.599 1 2 cbr 500 ------- 0 0.0 3.0 17 17
+ 0.6 0 1 cbr 500 ------- 0 0.0 3.0 20 20
- 0.6 0 1 cbr 500 ------- 0 0.0 3.0 20 20
r 0.602 2 3 cbr 500 ------- 0 0.0 3.0 12 12
r 0.603 1 2 cbr 500 ------- 0 0.0 3.0 15 15
+ 0.603 2 3 cbr 500 ------- 0 0.0 3.0 15 15
- 0.603 2 3 cbr 500 ------- 0 0.0 3.0 15 15
r 0.604 0 1 cbr 500 ------- 0 0.0 3.0 18 18
+ 0.604 1 2 cbr 500 ------- 0 0.0 3.0 18 18
- 0.604 1 2 cbr 500 ------- 0 0.0 3.0 18 18
+ 0.605 0 1 cbr 500 ------- 0 0.0 3.0 21 21
- 0.605 0 1 cbr 500 ------- 0 0.0 3.0 21 21
r 0.607 2 3 cbr 500 ------- 0 0.0 3.0 13 13
r 0.608 1 2 cbr 500 ------- 0 0.0 3.0 16 16
+ 0.608 2 3 cbr 500 ------- 0 0.0 3.0 16 16
- 0.608 2 3 cbr 500 ------- 0 0.0 3.0 16 16
r 0.609 0 1 cbr 500 ------- 0 0.0 3.0 19 19
+ 0.609 1 2 cbr 500 ------- 0 0.0 3.0 19 19
- 0.609 1 2 cbr 500 ------- 0 0.0 3.0 19 19
+ 0.61 0 1 cbr 500 ------- 0 0.0 3.0 22 22
- 0.61 0 1 cbr 500 ------- 0 0.0 3.0 22 22
r 0.612 2 3 cbr 500 ------- 0 0.0 3.0 14 14
r 0.613 1 2 cbr 500 ------- 0 0.0 3.0 17 17
+ 0.613 2 3 cbr 500 ------- 0 0.0 3.0 17 17
- 0.613 2 3 cbr 500 ------- 0 0.0 3.0 17 17
r 0.614 0 1 cbr 500 ------- 0 0.0 3.0 20 20
+ 0.614 1 2 cbr 500 ------- 0 0.0 3.0 20 20
- 0.614 1 2 cbr 500 ------- 0 0.0 3.0 20 20
+ 0.615 0 1 cbr 500 ------- 0 0.0 3.0 23 23
- 0.615 0 1 cbr 500 ------- 0 0.0 3.0 23 23
r 0.617 2 3 cbr 500 ------- 0 0.0 3.0 15 15
r 0.618 1 2 cbr 500 ------- 0 0.0 3.0 18 18
+ 0.618 2 3 cbr 500 ------- 0 0.0 3.0 18 18
- 0.618 2 3 cbr 500 ------- 0 0.0 3.0 18 18
r 0.619 0 1 cbr 500 ------- 0 0.0 3.0 21 21
+ 0.619 1 2 cbr 500 ------- 0 0.0 3.0 21 21
- 0.619 1 2 cbr 500 ------- 0 0.0 3.0 21 21
+ 0.62 0 1 cbr 500 ------- 0 0.0 3.0 24 24
- 0.62 0 1 cbr 500 ------- 0 0.0 3.0 24 24
r 0.622 2 3 cbr 500 ------- 0 0.0 3.0 16 16
r 0.623 1 2 cbr 500 ------- 0 0.0 3.0 19 19
+ 0.623 2 3 cbr 500 ------- 0 0.0 3.0 19 19
- 0.623 2 3 cbr 500 ------- 0 0.0 3.0 19 19
r 0.624 0 1 cbr 500 ------- 0 0.0 3.0 22 22
+ 0.624 1 2 cbr 500 ------- 0 0.0 3.0 22 22
- 0.624 1 2 cbr 500 ------- 0 0.0 3.0 22 22
+ 0.625 0 1 cbr 500 ------- 0 0.0 3.0 25 25
- 0.625 0 1 cbr 500 ------- 0 0.0 3.0 25 25
r 0.627 2 3 cbr 500 ------- 0 0.0 3.0 17 17
r 0.628 1 2 cbr 500 ------- 0 0.0 3.0 20 20
+ 0.628 2 3 cbr 500 ------- 0 0.0 3.0 20 20
- 0.628 2 3 cbr 500 ------- 0 0.0 3.0 20 20
r 0.629 0 1 cbr 500 ------- 0 0.0 3.0 23 23
+ 0.629 1 2 cbr 500 ------- 0 0.0 3.0 23 23
- 0.629 1 2 cbr 500 ------- 0 0.0 3.0 23 23
+ 0.63 0 1 cbr 500 ------- 0 0.0 3.0 26 26
- 0.63 0 1 cbr 500 ------- 0 0.0 3.0 26 26
r 0.632 2 3 cbr 500 ------- 0 0.0 3.0 18 18
r 0.633 1 2 cbr 500 ------- 0 0.0 3.0 21 21
+ 0.633 2 3 cbr 500 ------- 0 0.0 3.0 21 21
- 0.633 2 3 cbr 500 ------- 0 0.0 3.0 21 21
r 0.634 0 1 cbr 500 ------- 0 0.0 3.0 24 24
+ 0.634 1 2 cbr 500 ------- 0 0.0 3.0 24 24
- 0.634 1 2 cbr 500 ------- 0 0.0 3.0 24 24
+ 0.635 0 1 cbr 500 ------- 0 0.0 3.0 27 27
- 0.635 0 1 cbr 500 ------- 0 0.0 3.0 27 27
r 0.637 2 3 cbr 500 ------- 0 0.0 3.0 19 19
r 0.638 1 2 cbr 500 ------- 0 0.0 3.0 22 22
+ 0.638 2 3 cbr 500 ------- 0 0.0 3.0 22 22
- 0.638 2 3 cbr 500 ------- 0 0.0 3.0 22 22
r 0.639 0 1 cbr 500 ------- 0 0.0 3.0 25 25
+ 0.639 1 2 cbr 500 ------- 0 0.0 3.0 25 25
- 0.639 1 2 cbr 500 ------- 0 0.0 3.0 25 25
+ 0.64 0 1 cbr 500 ------- 0 0.0 3.0 28 28
- 0.64 0 1 cbr 500 ------- 0 0.0 3.0 28 28
r 0.642 2 3 cbr 500 ------- 0 0.0 3.0 20 20
r 0.643 1 2 cbr 500 ------- 0 0.0 3.0 23 23
+ 0.643 2 3 cbr 500 ------- 0 0.0 3.0 23 23
- 0.643 2 3 cbr 500 ------- 0 0.0 3.0 23 23
r 0.644 0 1 cbr 500 ------- 0 0.0 3.0 26 26
+ 0.644 1 2 cbr 500 ------- 0 0.0 3.0 26 26
- 0.644 1 2 cbr 500 ------- 0 0.0 3.0 26 26
+ 0.645 0 1 cbr 500 ------- 0 0.0 3.0 29 29
- 0.645 0 1 cbr 500 ------- 0 0.0 3.0 29 29
r 0.647 2 3 cbr 500 ------- 0 0.0 3.0 21 21
r 0.648 1 2 cbr 500 ------- 0 0.0 3.0 24 24
+ 0.648 2 3 cbr 500 ------- 0 0.0 3.0 24 24
- 0.648 2 3 cbr 500 ------- 0 0.0 3.0 24 24
r 0.649 0 1 cbr 500 ------- 0 0.0 3.0 27 27
+ 0.649 1 2 cbr 500 ------- 0 0.0 3.0 27 27
- 0.649 1 2 cbr 500 ------- 0 0.0 3.0 27 27
+ 0.65 0 1 cbr 500 ------- 0 0.0 3.0 30 30
- 0.65 0 1 cbr 500 ------- 0 0.0 3.0 30 30
r 0.652 2 3 cbr 500 ------- 0 0.0 3.0 22 22
r 0.653 1 2 cbr 500 ------- 0 0.0 3.0 25 25
+ 0.653 2 3 cbr 500 ------- 0 0.0 3.0 25 25
- 0.653 2 3 cbr 500 ------- 0 0.0 3.0 25 25
r 0.654 0 1 cbr 500 ------- 0 0.0 3.0 28 28
+ 0.654 1 2 cbr 500 ------- 0 0.0 3.0 28 28
- 0.654 1 2 cbr 500 ------- 0 0.0 3.0 28 28
+ 0.655 0 1 cbr 500 ------- 0 0.0 3.0 31 31
- 0.655 0 1 cbr 500 ------- 0 0.0 3.0 31 31
r 0.657 2 3 cbr 500 ------- 0 0.0 3.0 23 23
r 0.658 1 2 cbr 500 ------- 0 0.0 3.0 26 26
+ 0.658 2 3 cbr 500 ------- 0 0.0 3.0 26 26
- 0.658 2 3 cbr 500 ------- 0 0.0 3.0 26 26
r 0.659 0 1 cbr 500 ------- 0 0.0 3.0 29 29
+ 0.659 1 2 cbr 500 ------- 0 0.0 3.0 29 29
- 0.659 1 2 cbr 500 ------- 0 0.0 3.0 29 29
+ 0.66 0 1 cbr 500 ------- 0 0.0 3.0 32 32
- 0.66 0 1 cbr 500 ------- 0 0.0 3.0 32 32
r 0.662 2 3 cbr 500 ------- 0 0.0 3.0 24 24
r 0.663 1 2 cbr 500 ------- 0 0.0 3.0 27 27
+ 0.663 2 3 cbr 500 ------- 0 0.0 3.0 27 27
- 0.663 2 3 cbr 500 ------- 0 0.0 3.0 27 27
r 0.664 0 1 cbr 500 ------- 0 0.0 3.0 30 30
+ 0.664 1 2 cbr 500 ------- 0 0.0 3.0 30 30
- 0.664 1 2 cbr 500 ------- 0 0.0 3.0 30 30
+ 0.665 0 1 cbr 500 ------- 0 0.0 3.0 33 33
- 0.665 0 1 cbr 500 ------- 0 0.0 3.0 33 33
r 0.667 2 3 cbr 500 ------- 0 0.0 3.0 25 25
r 0.668 1 2 cbr 500 ------- 0 0.0 3.0 28 28
+ 0.668 2 3 cbr 500 ------- 0 0.0 3.0 28 28
- 0.668 2 3 cbr 500 ------- 0 0.0 3.0 28 28
r 0.669 0 1 cbr 500 ------- 0 0.0 3.0 31 31
+ 0.669 1 2 cbr 500 ------- 0 0.0 3.0 31 31
- 0.669 1 2 cbr 500 ------- 0 0.0 3.0 31 31
+ 0.67 0 1 cbr 500 ------- 0 0.0 3.0 34 34
- 0.67 0 1 cbr 500 ------- 0 0.0 3.0 34 34
r 0.672 2 3 cbr 500 ------- 0 0.0 3.0 26 26
r 0.673 1 2 cbr 500 ------- 0 0.0 3.0 29 29
+ 0.673 2 3 cbr 500 ------- 0 0.0 3.0 29 29
- 0.673 2 3 cbr 500 ------- 0 0.0 3.0 29 29
r 0.674 0 1 cbr 500 ------- 0 0.0 3.0 32 32
+ 0.674 1 2 cbr 500 ------- 0 0.0 3.0 32 32
- 0.674 1 2 cbr 500 ------- 0 0.0 3.0 32 32
+ 0.675 0 1 cbr 500 ------- 0 0.0 3.0 35 35
- 0.675 0 1 cbr 500 ------- 0 0.0 3.0 35 35
r 0.677 2 3 cbr 500 ------- 0 0.0 3.0 27 27
r 0.678 1 2 cbr 500 ------- 0 0.0 3.0 30 30
+ 0.678 2 3 cbr 500 ------- 0 0.0 3.0 30 30
- 0.678 2 3 cbr 500 ------- 0 0.0 3.0 30 30
r 0.679 0 1 cbr 500 ------- 0 0.0 3.0 33 33
+ 0.679 1 2 cbr 500 ------- 0 0.0 3.0 33 33
- 0.679 1 2 cbr 500 ------- 0 0.0 3.0 33 33
+ 0.68 0 1 cbr 500 ------- 0 0.0 3.0 36 36
- 0.68 0 1 cbr 500 ------- 0 0.0 3.0 36 36
r 0.682 2 3 cbr 500 ------- 0 0.0 3.0 28 28
r 0.683 1 2 cbr 500 ------- 0 0.0 3.0 31 31
+ 0.683 2 3 cbr 500 ------- 0 0.0 3.0 31 31
- 0.683 2 3 cbr 500 ------- 0 0.0 3.0 31 31
r 0.684 0 1 cbr 500 ------- 0 0.0 3.0 34 34
+ 0.684 1 2 cbr 500 ------- 0 0.0 3.0 34 34
- 0.684 1 2 cbr 500 ------- 0 0.0 3.0 34 34
+ 0.685 0 1 cbr 500 ------- 0 0.0 3.0 37 37
- 0.685 0 1 cbr 500 ------- 0 0.0 3.0 37 37
r 0.687 2 3 cbr 500 ------- 0 0.0 3.0 29 29
r 0.688 1 2 cbr 500 ------- 0 0.0 3.0 32 32
+ 0.688 2 3 cbr 500 ------- 0 0.0 3.0 32 32
- 0.688 2 3 cbr 500 ------- 0 0.0 3.0 32 32
r 0.689 0 1 cbr 500 ------- 0 0.0 3.0 35 35
+ 0.689 1 2 cbr 500 ------- 0 0.0 3.0 35 35
- 0.689 1 2 cbr 500 ------- 0 0.0 3.0 35 35
+ 0.69 0 1 cbr 500 ------- 0 0.0 3.0 38 38
- 0.69 0 1 cbr 500 ------- 0 0.0 3.0 38 38
r 0.692 2 3 cbr 500 ------- 0 0.0 3.0 30 30
r 0.693 1 2 cbr 500 ------- 0 0.0 3.0 33 33
+ 0.693 2 3 cbr 500 ------- 0 0.0 3.0 33 33
- 0.693 2 3 cbr 500 ------- 0 0.0 3.0 33 33
r 0.694 0 1 cbr 500 ------- 0 0.0 3.0 36 36
+ 0.694 1 2 cbr 500 ------- 0 0.0 3.0 36 36
- 0.694 1 2 cbr 500 ------- 0 0.0 3.0 36 36
+ 0.695 0 1 cbr 500 ------- 0 0.0 3.0 39 39
- 0.695 0 1 cbr 500 ------- 0 0.0 3.0 39 39
r 0.697 2 3 cbr 500 ------- 0 0.0 3.0 31 31
r 0.698 1 2 cbr 500 ------- 0 0.0 3.0 34 34
+ 0.698 2 3 cbr 500 ------- 0 0.0 3.0 34 34
- 0.698 2 3 cbr 500 ------- 0 0.0 3.0 34 34
r 0.699 0 1 cbr 500 ------- 0 0.0 3.0 37 37
+ 0.699 1 2 cbr 500 ------- 0 0.0 3.0 37 37
- 0.699 1 2 cbr 500 ------- 0 0.0 3.0 37 37
+ 0.7 0 1 cbr 500 ------- 0 0.0 3.0 40 40
- 0.7 0 1 cbr 500 ------- 0 0.0 3.0 40 40
r 0.702 2 3 cbr 500 ------- 0 0.0 3.0 32 32
r 0.703 1 2 cbr 500 ------- 0 0.0 3.0 35 35
+ 0.703 2 3 cbr 500 ------- 0 0.0 3.0 35 35
- 0.703 2 3 cbr 500 ------- 0 0.0 3.0 35 35
r 0.704 0 1 cbr 500 ------- 0 0.0 3.0 38 38
+ 0.704 1 2 cbr 500 ------- 0 0.0 3.0 38 38
- 0.704 1 2 cbr 500 ------- 0 0.0 3.0 38 38
+ 0.705 0 1 cbr 500 ------- 0 0.0 3.0 41 41
- 0.705 0 1 cbr 500 ------- 0 0.0 3.0 41 41
r 0.707 2 3 cbr 500 ------- 0 0.0 3.0 33 33
r 0.708 1 2 cbr 500 ------- 0 0.0 3.0 36 36
+ 0.708 2 3 cbr 500 ------- 0 0.0 3.0 36 36
- 0.708 2 3 cbr 500 ------- 0 0.0 3.0 36 36
r 0.709 0 1 cbr 500 ------- 0 0.0 3.0 39 39
+ 0.709 1 2 cbr 500 ------- 0 0.0 3.0 39 39
- 0.709 1 2 cbr 500 ------- 0 0.0 3.0 39 39
+ 0.71 0 1 cbr 500 ------- 0 0.0 3.0 42 42
- 0.71 0 1 cbr 500 ------- 0 0.0 3.0 42 42
r 0.712 2 3 cbr 500 ------- 0 0.0 3.0 34 34
r 0.713 1 2 cbr 500 ------- 0 0.0 3.0 37 37
+ 0.713 2 3 cbr 500 ------- 0 0.0 3.0 37 37
- 0.713 2 3 cbr 500 ------- 0 0.0 3.0 37 37
r 0.714 0 1 cbr 500 ------- 0 0.0 3.0 40 40
+ 0.714 1 2 cbr 500 ------- 0 0.0 3.0 40 40
- 0.714 1 2 cbr 500 ------- 0 0.0 3.0 40 40
+ 0.715 0 1 cbr 500 ------- 0 0.0 3.0 43 43
- 0.715 0 1 cbr 500 ------- 0 0.0 3.0 43 43
r 0.717 2 3 cbr 500 ------- 0 0.0 3.0 35 35
r 0.718 1 2 cbr 500 ------- 0 0.0 3.0 38 38
+ 0.718 2 3 cbr 500 ------- 0 0.0 3.0 38 38
- 0.718 2 3 cbr 500 ------- 0 0.0 3.0 38 38
r 0.719 0 1 cbr 500 ------- 0 0.0 3.0 41 41
+ 0.719 1 2 cbr 500 ------- 0 0.0 3.0 41 41
- 0.719 1 2 cbr 500 ------- 0 0.0 3.0 41 41
+ 0.72 0 1 cbr 500 ------- 0 0.0 3.0 44 44
- 0.72 0 1 cbr 500 ------- 0 0.0 3.0 44 44
r 0.722 2 3 cbr 500 ------- 0 0.0 3.0 36 36
r 0.723 1 2 cbr 500 ------- 0 0.0 3.0 39 39
+ 0.723 2 3 cbr 500 ------- 0 0.0 3.0 39 39
- 0.723 2 3 cbr 500 ------- 0 0.0 3.0 39 39
r 0.724 0 1 cbr 500 ------- 0 0.0 3.0 42 42
+ 0.724 1 2 cbr 500 ------- 0 0.0 3.0 42 42
- 0.724 1 2 cbr 500 ------- 0 0.0 3.0 42 42
+ 0.725 0 1 cbr 500 ------- 0 0.0 3.0 45 45
- 0.725 0 1 cbr 500 ------- 0 0.0 3.0 45 45
r 0.727 2 3 cbr 500 ------- 0 0.0 3.0 37 37
r 0.728 1 2 cbr 500 ------- 0 0.0 3.0 40 40
+ 0.728 2 3 cbr 500 ------- 0 0.0 3.0 40 40
- 0.728 2 3 cbr 500 ------- 0 0.0 3.0 40 40
r 0.729 0 1 cbr 500 ------- 0 0.0 3.0 43 43
+ 0.729 1 2 cbr 500 ------- 0 0.0 3.0 43 43
- 0.729 1 2 cbr 500 ------- 0 0.0 3.0 43 43
+ 0.73 0 1 cbr 500 ------- 0 0.0 3.0 46 46
- 0.73 0 1 cbr 500 ------- 0 0.0 3.0 46 46
r 0.732 2 3 cbr 500 ------- 0 0.0 3.0 38 38
r 0.733 1 2 cbr 500 ------- 0 0.0 3.0 41 41
+ 0.733 2 3 cbr 500 ------- 0 0.0 3.0 41 41
- 0.733 2 3 cbr 500 ------- 0 0.0 3.0 41 41
r 0.734 0 1 cbr 500 ------- 0 0.0 3.0 44 44
+ 0.734 1 2 cbr 500 ------- 0 0.0 3.0 44 44
- 0.734 1 2 cbr 500 ------- 0 0.0 3.0 44 44
+ 0.735 0 1 cbr 500 ------- 0 0.0 3.0 47 47
- 0.735 0 1 cbr 500 ------- 0 0.0 3.0 47 47
r 0.737 2 3 cbr 500 ------- 0 0.0 3.0 39 39
r 0.738 1 2 cbr 500 ------- 0 0.0 3.0 42 42
+ 0.738 2 3 cbr 500 ------- 0 0.0 3.0 42 42
- 0.738 2 3 cbr 500 ------- 0 0.0 3.0 42 42
r 0.739 0 1 cbr 500 ------- 0 0.0 3.0 45 45
+ 0.739 1 2 cbr 500 ------- 0 0.0 3.0 45 45
- 0.739 1 2 cbr 500 ------- 0 0.0 3.0 45 45
+ 0.74 0 1 cbr 500 ------- 0 0.0 3.0 48 48
- 0.74 0 1 cbr 500 ------- 0 0.0 3.0 48 48
r 0.742 2 3 cbr 500 ------- 0 0.0 3.0 40 40
r 0.743 1 2 cbr 500 ------- 0 0.0 3.0 43 43
+ 0.743 2 3 cbr 500 ------- 0 0.0 3.0 43 43
- 0.743 2 3 cbr 500 ------- 0 0.0 3.0 43 43
r 0.744 0 1 cbr 500 ------- 0 0.0 3.0 46 46
+ 0.744 1 2 cbr 500 ------- 0 0.0 3.0 46 46
- 0.744 1 2 cbr 500 ------- 0 0.0 3.0 46 46
+ 0.745 0 1 cbr 500 ------- 0 0.0 3.0 49 49
- 0.745 0 1 cbr 500 ------- 0 0.0 3.0 49 49
r 0.747 2 3 cbr 500 ------- 0 0.0 3.0 41 41
r 0.748 1 2 cbr 500 ------- 0 0.0 3.0 44 44
+ 0.748 2 3 cbr 500 ------- 0 0.0 3.0 44 44
- 0.748 2 3 cbr 500 ------- 0 0.0 3.0 44 44
r 0.749 0 1 cbr 500 ------- 0 0.0 3.0 47 47
+ 0.749 1 2 cbr 500 ------- 0 0.0 3.0 47 47
- 0.749 1 2 cbr 500 ------- 0 0.0 3.0 47 47
+ 0.75 0 1 cbr 500 ------- 0 0.0 3.0 50 50
- 0.75 0 1 cbr 500 ------- 0 0.0 3.0 50 50
r 0.752 2 3 cbr 500 ------- 0 0.0 3.0 42 42
r 0.753 1 2 cbr 500 ------- 0 0.0 3.0 45 45
+ 0.753 2 3 cbr 500 ------- 0 0.0 3.0 45 45
- 0.753 2 3 cbr 500 ------- 0 0.0 3.0 45 45
r 0.754 0 1 cbr 500 ------- 0 0.0 3.0 48 48
+ 0.754 1 2 cbr 500 ------- 0 0.0 3.0 48 48
- 0.754 1 2 cbr 500 ------- 0 0.0 3.0 48 48
+ 0.755 0 1 cbr 500 ------- 0 0.0 3.0 51 51
- 0.755 0 1 cbr 500 ------- 0 0.0 3.0 51 51
r 0.757 2 3 cbr 500 ------- 0 0.0 3.0 43 43
r 0.758 1 2 cbr 500 ------- 0 0.0 3.0 46 46
+ 0.758 2 3 cbr 500 ------- 0 0.0 3.0 46 46
- 0.758 2 3 cbr 500 ------- 0 0.0 3.0 46 46
r 0.759 0 1 cbr 500 ------- 0 0.0 3.0 49 49
+ 0.759 1 2 cbr 500 ------- 0 0.0 3.0 49 49
- 0.759 1 2 cbr 500 ------- 0 0.0 3.0 49 49
+ 0.76 0 1 cbr 500 ------- 0 0.0 3.0 52 52
- 0.76 0 1 cbr 500 ------- 0 0.0 3.0 52 52
r 0.762 2 3 cbr 500 ------- 0 0.0 3.0 44 44
r 0.763 1 2 cbr 500 ------- 0 0.0 3.0 47 47
+ 0.763 2 3 cbr 500 ------- 0 0.0 3.0 47 47
- 0.763 2 3 cbr 500 ------- 0 0.0 3.0 47 47
r 0.764 0 1 cbr 500 ------- 0 0.0 3.0 50 50
+ 0.764 1 2 cbr 500 ------- 0 0.0 3.0 50 50
- 0.764 1 2 cbr 500 ------- 0 0.0 3.0 50 50
+ 0.765 0 1 cbr 500 ------- 0 0.0 3.0 53 53
- 0.765 0 1 cbr 500 ------- 0 0.0 3.0 53 53
r 0.767 2 3 cbr 500 ------- 0 0.0 3.0 45 45
r 0.768 1 2 cbr 500 ------- 0 0.0 3.0 48 48
+ 0.768 2 3 cbr 500 ------- 0 0.0 3.0 48 48
- 0.768 2 3 cbr 500 ------- 0 0.0 3.0 48 48
r 0.769 0 1 cbr 500 ------- 0 0.0 3.0 51 51
+ 0.769 1 2 cbr 500 ------- 0 0.0 3.0 51 51
- 0.769 1 2 cbr 500 ------- 0 0.0 3.0 51 51
+ 0.77 0 1 cbr 500 ------- 0 0.0 3.0 54 54
- 0.77 0 1 cbr 500 ------- 0 0.0 3.0 54 54
r 0.772 2 3 cbr 500 ------- 0 0.0 3.0 46 46
r 0.773 1 2 cbr 500 ------- 0 0.0 3.0 49 49
+ 0.773 2 3 cbr 500 ------- 0 0.0 3.0 49 49
- 0.773 2 3 cbr 500 ------- 0 0.0 3.0 49 49
r 0.774 0 1 cbr 500 ------- 0 0.0 3.0 52 52
+ 0.774 1 2 cbr 500 ------- 0 0.0 3.0 52 52
- 0.774 1 2 cbr 500 ------- 0 0.0 3.0 52 52
+ 0.775 0 1 cbr 500 ------- 0 0.0 3.0 55 55
- 0.775 0 1 cbr 500 ------- 0 0.0 3.0 55 55
r 0.777 2 3 cbr 500 ------- 0 0.0 3.0 47 47
r 0.778 1 2 cbr 500 ------- 0 0.0 3.0 50 50
+ 0.778 2 3 cbr 500 ------- 0 0.0 3.0 50 50
- 0.778 2 3 cbr 500 ------- 0 0.0 3.0 50 50
r 0.779 0 1 cbr 500 ------- 0 0.0 3.0 53 53
+ 0.779 1 2 cbr 500 ------- 0 0.0 3.0 53 53
- 0.779 1 2 cbr 500 ------- 0 0.0 3.0 53 53
+ 0.78 0 1 cbr 500 ------- 0 0.0 3.0 56 56
- 0.78 0 1 cbr 500 ------- 0 0.0 3.0 56 56
r 0.782 2 3 cbr 500 ------- 0 0.0 3.0 48 48
r 0.783 1 2 cbr 500 ------- 0 0.0 3.0 51 51
+ 0.783 2 3 cbr 500 ------- 0 0.0 3.0 51 51
- 0.783 2 3 cbr 500 ------- 0 0.0 3.0 51 51
r 0.784 0 1 cbr 500 ------- 0 0.0 3.0 54 54
+ 0.784 1 2 cbr 500 ------- 0 0.0 3.0 54 54
- 0.784 1 2 cbr 500 ------- 0 0.0 3.0 54 54
+ 0.785 0 1 cbr 500 ------- 0 0.0 3.0 57 57
- 0.785 0 1 cbr 500 ------- 0 0.0 3.0 57 57
r 0.787 2 3 cbr 500 ------- 0 0.0 3.0 49 49
r 0.788 1 2 cbr 500 ------- 0 0.0 3.0 52 52
+ 0.788 2 3 cbr 500 ------- 0 0.0 3.0 52 52
- 0.788 2 3 cbr 500 ------- 0 0.0 3.0 52 52
r 0.789 0 1 cbr 500 ------- 0 0.0 3.0 55 55
+ 0.789 1 2 cbr 500 ------- 0 0.0 3.0 55 55
- 0.789 1 2 cbr 500 ------- 0 0.0 3.0 55 55
+ 0.79 0 1 cbr 500 ------- 0 0.0 3.0 58 58
- 0.79 0 1 cbr 500 ------- 0 0.0 3.0 58 58
r 0.792 2 3 cbr 500 ------- 0 0.0 3.0 50 50
r 0.793 1 2 cbr 500 ------- 0 0.0 3.0 53 53
+ 0.793 2 3 cbr 500 ------- 0 0.0 3.0 53 53
- 0.793 2 3 cbr 500 ------- 0 0.0 3.0 53 53
r 0.794 0 1 cbr 500 ------- 0 0.0 3.0 56 56
+ 0.794 1 2 cbr 500 ------- 0 0.0 3.0 56 56
- 0.794 1 2 cbr 500 ------- 0 0.0 3.0 56 56
+ 0.795 0 1 cbr 500 ------- 0 0.0 3.0 59 59
- 0.795 0 1 cbr 500 ------- 0 0.0 3.0 59 59
r 0.797 2 3 cbr 500 ------- 0 0.0 3.0 51 51
r 0.798 1 2 cbr 500 ------- 0 0.0 3.0 54 54
+ 0.798 2 3 cbr 500 ------- 0 0.0 3.0 54 54
- 0.798 2 3 cbr 500 ------- 0 0.0 3.0 54 54
r 0.799 0 1 cbr 500 ------- 0 0.0 3.0 57 57
+ 0.799 1 2 cbr 500 ------- 0 0.0 3.0 57 57
- 0.799 1 2 cbr 500 ------- 0 0.0 3.0 57 57
+ 0.8 0 1 cbr 500 ------- 0 0.0 3.0 60 60
- 0.8 0 1 cbr 500 ------- 0 0.0 3.0 60 60
r 0.802 2 3 cbr 500 ------- 0 0.0 3.0 52 52
r 0.803 1 2 cbr 500 ------- 0 0.0 3.0 55 55
+ 0.803 2 3 cbr 500 ------- 0 0.0 3.0 55 55
- 0.803 2 3 cbr 500 ------- 0 0.0 3.0 55 55
r 0.804 0 1 cbr 500 ------- 0 0.0 3.0 58 58
+ 0.804 1 2 cbr 500 ------- 0 0.0 3.0 58 58
- 0.804 1 2 cbr 500 ------- 0 0.0 3.0 58 58
+ 0.805 0 1 cbr 500 ------- 0 0.0 3.0 61 61
- 0.805 0 1 cbr 500 ------- 0 0.0 3.0 61 61
r 0.807 2 3 cbr 500 ------- 0 0.0 3.0 53 53
r 0.808 1 2 cbr 500 ------- 0 0.0 3.0 56 56
+ 0.808 2 3 cbr 500 ------- 0 0.0 3.0 56 56
- 0.808 2 3 cbr 500 ------- 0 0.0 3.0 56 56
r 0.809 0 1 cbr 500 ------- 0 0.0 3.0 59 59
+ 0.809 1 2 cbr 500 ------- 0 0.0 3.0 59 59
- 0.809 1 2 cbr 500 ------- 0 0.0 3.0 59 59
+ 0.81 0 1 cbr 500 ------- 0 0.0 3.0 62 62
- 0.81 0 1 cbr 500 ------- 0 0.0 3.0 62 62
r 0.812 2 3 cbr 500 ------- 0 0.0 3.0 54 54
r 0.813 1 2 cbr 500 ------- 0 0.0 3.0 57 57
+ 0.813 2 3 cbr 500 ------- 0 0.0 3.0 57 57
- 0.813 2 3 cbr 500 ------- 0 0.0 3.0 57 57
r 0.814 0 1 cbr 500 ------- 0 0.0 3.0 60 60
+ 0.814 1 2 cbr 500 ------- 0 0.0 3.0 60 60
- 0.814 1 2 cbr 500 ------- 0 0.0 3.0 60 60
+ 0.815 0 1 cbr 500 ------- 0 0.0 3.0 63 63
- 0.815 0 1 cbr 500 ------- 0 0.0 3.0 63 63
r 0.817 2 3 cbr 500 ------- 0 0.0 3.0 55 55
r 0.818 1 2 cbr 500 ------- 0 0.0 3.0 58 58
+ 0.818 2 3 cbr 500 ------- 0 0.0 3.0 58 58
- 0.818 2 3 cbr 500 ------- 0 0.0 3.0 58 58
r 0.819 0 1 cbr 500 ------- 0 0.0 3.0 61 61
+ 0.819 1 2 cbr 500 ------- 0 0.0 3.0 61 61
- 0.819 1 2 cbr 500 ------- 0 0.0 3.0 61 61
+ 0.82 0 1 cbr 500 ------- 0 0.0 3.0 64 64
- 0.82 0 1 cbr 500 ------- 0 0.0 3.0 64 64
r 0.822 2 3 cbr 500 ------- 0 0.0 3.0 56 56
r 0.823 1 2 cbr 500 ------- 0 0.0 3.0 59 59
+ 0.823 2 3 cbr 500 ------- 0 0.0 3.0 59 59
- 0.823 2 3 cbr 500 ------- 0 0.0 3.0 59 59
r 0.824 0 1 cbr 500 ------- 0 0.0 3.0 62 62
+ 0.824 1 2 cbr 500 ------- 0 0.0 3.0 62 62
- 0.824 1 2 cbr 500 ------- 0 0.0 3.0 62 62
+ 0.825 0 1 cbr 500 ------- 0 0.0 3.0 65 65
- 0.825 0 1 cbr 500 ------- 0 0.0 3.0 65 65
r 0.827 2 3 cbr 500 ------- 0 0.0 3.0 57 57
r 0.828 1 2 cbr 500 ------- 0 0.0 3.0 60 60
+ 0.828 2 3 cbr 500 ------- 0 0.0 3.0 60 60
- 0.828 2 3 cbr 500 ------- 0 0.0 3.0 60 60
r 0.829 0 1 cbr 500 ------- 0 0.0 3.0 63 63
+ 0.829 1 2 cbr 500 ------- 0 0.0 3.0 63 63
- 0.829 1 2 cbr 500 ------- 0 0.0 3.0 63 63
+ 0.83 0 1 cbr 500 ------- 0 0.0 3.0 66 66
- 0.83 0 1 cbr 500 ------- 0 0.0 3.0 66 66
r 0.832 2 3 cbr 500 ------- 0 0.0 3.0 58 58
r 0.833 1 2 cbr 500 ------- 0 0.0 3.0 61 61
+ 0.833 2 3 cbr 500 ------- 0 0.0 3.0 61 61
- 0.833 2 3 cbr 500 ------- 0 0.0 3.0 61 61
r 0.834 0 1 cbr 500 ------- 0 0.0 3.0 64 64
+ 0.834 1 2 cbr 500 ------- 0 0.0 3.0 64 64
- 0.834 1 2 cbr 500 ------- 0 0.0 3.0 64 64
+ 0.835 0 1 cbr 500 ------- 0 0.0 3.0 67 67
- 0.835 0 1 cbr 500 ------- 0 0.0 3.0 67 67
r 0.837 2 3 cbr 500 ------- 0 0.0 3.0 59 59
r 0.838 1 2 cbr 500 ------- 0 0.0 3.0 62 62
+ 0.838 2 3 cbr 500 ------- 0 0.0 3.0 62 62
- 0.838 2 3 cbr 500 ------- 0 0.0 3.0 62 62
r 0.839 0 1 cbr 500 ------- 0 0.0 3.0 65 65
+ 0.839 1 2 cbr 500 ------- 0 0.0 3.0 65 65
- 0.839 1 2 cbr 500 ------- 0 0.0 3.0 65 65
+ 0.84 0 1 cbr 500 ------- 0 0.0 3.0 68 68
- 0.84 0 1 cbr 500 ------- 0 0.0 3.0 68 68
r 0.842 2 3 cbr 500 ------- 0 0.0 3.0 60 60
r 0.843 1 2 cbr 500 ------- 0 0.0 3.0 63 63
+ 0.843 2 3 cbr 500 ------- 0 0.0 3.0 63 63
- 0.843 2 3 cbr 500 ------- 0 0.0 3.0 63 63
r 0.844 0 1 cbr 500 ------- 0 0.0 3.0 66 66
+ 0.844 1 2 cbr 500 ------- 0 0.0 3.0 66 66
- 0.844 1 2 cbr 500 ------- 0 0.0 3.0 66 66
+ 0.845 0 1 cbr 500 ------- 0 0.0 3.0 69 69
- 0.845 0 1 cbr 500 ------- 0 0.0 3.0 69 69
r 0.847 2 3 cbr 500 ------- 0 0.0 3.0 61 61
r 0.848 1 2 cbr 500 ------- 0 0.0 3.0 64 64
+ 0.848 2 3 cbr 500 ------- 0 0.0 3.0 64 64
- 0.848 2 3 cbr 500 ------- 0 0.0 3.0 64 64
r 0.849 0 1 cbr 500 ------- 0 0.0 3.0 67 67
+ 0.849 1 2 cbr 500 ------- 0 0.0 3.0 67 67
- 0.849 1 2 cbr 500 ------- 0 0.0 3.0 67 67
+ 0.85 0 1 cbr 500 ------- 0 0.0 3.0 70 70
- 0.85 0 1 cbr 500 ------- 0 0.0 3.0 70 70
r 0.852 2 3 cbr 500 ------- 0 0.0 3.0 62 62
r 0.853 1 2 cbr 500 ------- 0 0.0 3.0 65 65
+ 0.853 2 3 cbr 500 ------- 0 0.0 3.0 65 65
- 0.853 2 3 cbr 500 ------- 0 0.0 3.0 65 65
r 0.854 0 1 cbr 500 ------- 0 0.0 3.0 68 68
+ 0.854 1 2 cbr 500 ------- 0 0.0 3.0 68 68
- 0.854 1 2 cbr 500 ------- 0 0.0 3.0 68 68
+ 0.855 0 1 cbr 500 ------- 0 0.0 3.0 71 71
- 0.855 0 1 cbr 500 ------- 0 0.0 3.0 71 71
r 0.857 2 3 cbr 500 ------- 0 0.0 3.0 63 63
r 0.858 1 2 cbr 500 ------- 0 0.0 3.0 66 66
+ 0.858 2 3 cbr 500 ------- 0 0.0 3.0 66 66
- 0.858 2 3 cbr 500 ------- 0 0.0 3.0 66 66
r 0.859 0 1 cbr 500 ------- 0 0.0 3.0 69 69
+ 0.859 1 2 cbr 500 ------- 0 0.0 3.0 69 69
- 0.859 1 2 cbr 500 ------- 0 0.0 3.0 69 69
+ 0.86 0 1 cbr 500 ------- 0 0.0 3.0 72 72
- 0.86 0 1 cbr 500 ------- 0 0.0 3.0 72 72
r 0.862 2 3 cbr 500 ------- 0 0.0 3.0 64 64
r 0.863 1 2 cbr 500 ------- 0 0.0 3.0 67 67
+ 0.863 2 3 cbr 500 ------- 0 0.0 3.0 67 67
- 0.863 2 3 cbr 500 ------- 0 0.0 3.0 67 67
r 0.864 0 1 cbr 500 ------- 0 0.0 3.0 70 70
+ 0.864 1 2 cbr 500 ------- 0 0.0 3.0 70 70
- 0.864 1 2 cbr 500 ------- 0 0.0 3.0 70 70
+ 0.865 0 1 cbr 500 ------- 0 0.0 3.0 73 73
- 0.865 0 1 cbr 500 ------- 0 0.0 3.0 73 73
r 0.867 2 3 cbr 500 ------- 0 0.0 3.0 65 65
r 0.868 1 2 cbr 500 ------- 0 0.0 3.0 68 68
+ 0.868 2 3 cbr 500 ------- 0 0.0 3.0 68 68
- 0.868 2 3 cbr 500 ------- 0 0.0 3.0 68 68
r 0.869 0 1 cbr 500 ------- 0 0.0 3.0 71 71
+ 0.869 1 2 cbr 500 ------- 0 0.0 3.0 71 71
- 0.869 1 2 cbr 500 ------- 0 0.0 3.0 71 71
+ 0.87 0 1 cbr 500 ------- 0 0.0 3.0 74 74
- 0.87 0 1 cbr 500 ------- 0 0.0 3.0 74 74
r 0.872 2 3 cbr 500 ------- 0 0.0 3.0 66 66
r 0.873 1 2 cbr 500 ------- 0 0.0 3.0 69 69
+ 0.873 2 3 cbr 500 ------- 0 0.0 3.0 69 69
- 0.873 2 3 cbr 500 ------- 0 0.0 3.0 69 69
r 0.874 0 1 cbr 500 ------- 0 0.0 3.0 72 72
+ 0.874 1 2 cbr 500 ------- 0 0.0 3.0 72 72
- 0.874 1 2 cbr 500 ------- 0 0.0 3.0 72 72
+ 0.875 0 1 cbr 500 ------- 0 0.0 3.0 75 75
- 0.875 0 1 cbr 500 ------- 0 0.0 3.0 75 75
r 0.877 2 3 cbr 500 ------- 0 0.0 3.0 67 67
r 0.878 1 2 cbr 500 ------- 0 0.0 3.0 70 70
+ 0.878 2 3 cbr 500 ------- 0 0.0 3.0 70 70
- 0.878 2 3 cbr 500 ------- 0 0.0 3.0 70 70
r 0.879 0 1 cbr 500 ------- 0 0.0 3.0 73 73
+ 0.879 1 2 cbr 500 ------- 0 0.0 3.0 73 73
- 0.879 1 2 cbr 500 ------- 0 0.0 3.0 73 73
+ 0.88 0 1 cbr 500 ------- 0 0.0 3.0 76 76
- 0.88 0 1 cbr 500 ------- 0 0.0 3.0 76 76
r 0.882 2 3 cbr 500 ------- 0 0.0 3.0 68 68
r 0.883 1 2 cbr 500 ------- 0 0.0 3.0 71 71
+ 0.883 2 3 cbr 500 ------- 0 0.0 3.0 71 71
- 0.883 2 3 cbr 500 ------- 0 0.0 3.0 71 71
r 0.884 0 1 cbr 500 ------- 0 0.0 3.0 74 74
+ 0.884 1 2 cbr 500 ------- 0 0.0 3.0 74 74
- 0.884 1 2 cbr 500 ------- 0 0.0 3.0 74 74
+ 0.885 0 1 cbr 500 ------- 0 0.0 3.0 77 77
- 0.885 0 1 cbr 500 ------- 0 0.0 3.0 77 77
r 0.887 2 3 cbr 500 ------- 0 0.0 3.0 69 69
r 0.888 1 2 cbr 500 ------- 0 0.0 3.0 72 72
+ 0.888 2 3 cbr 500 ------- 0 0.0 3.0 72 72
- 0.888 2 3 cbr 500 ------- 0 0.0 3.0 72 72
r 0.889 0 1 cbr 500 ------- 0 0.0 3.0 75 75
+ 0.889 1 2 cbr 500 ------- 0 0.0 3.0 75 75
- 0.889 1 2 cbr 500 ------- 0 0.0 3.0 75 75
+ 0.89 0 1 cbr 500 ------- 0 0.0 3.0 78 78
- 0.89 0 1 cbr 500 ------- 0 0.0 3.0 78 78
r 0.892 2 3 cbr 500 ------- 0 0.0 3.0 70 70
r 0.893 1 2 cbr 500 ------- 0 0.0 3.0 73 73
+ 0.893 2 3 cbr 500 ------- 0 0.0 3.0 73 73
- 0.893 2 3 cbr 500 ------- 0 0.0 3.0 73 73
r 0.894 0 1 cbr 500 ------- 0 0.0 3.0 76 76
+ 0.894 1 2 cbr 500 ------- 0 0.0 3.0 76 76
- 0.894 1 2 cbr 500 ------- 0 0.0 3.0 76 76
+ 0.895 0 1 cbr 500 ------- 0 0.0 3.0 79 79
- 0.895 0 1 cbr 500 ------- 0 0.0 3.0 79 79
r 0.897 2 3 cbr 500 ------- 0 0.0 3.0 71 71
r 0.898 1 2 cbr 500 ------- 0 0.0 3.0 74 74
+ 0.898 2 3 cbr 500 ------- 0 0.0 3.0 74 74