M 1.00000 0 (10.00, 20.00, 0.00), (490.00, 340.00), 25.00
M 1.00000 1 (430.00, 320.00, 0.00), (300.00, 130.00), 5.00
s 1.000000000 _0_ AGT  --- 0 tcp 40 [0 0 0 0] ------- [0:0 1:0 32 0] [0 0] 0 0
r 1.000000000 _0_ RTR  --- 0 tcp 40 [0 0 0 0] ------- [0:0 1:0 32 0] [0 0] 0 0
s 1.000000000 _0_ RTR  --- 0 AODV 48 [0 0 0 0] ------- [0:255 -1:255 30 0] [0x2 1 1 [1 0] [0 4]] (REQUEST)
s 1.000115000 _0_ MAC  --- 0 AODV 106 [0 ffffffff 0 800] ------- [0:255 -1:255 30 0] [0x2 1 1 [1 0] [0 4]] (REQUEST)
s 3.000000000 _0_ RTR  --- 0 AODV 48 [0 0 0 0] ------- [0:255 -1:255 30 0] [0x2 1 2 [1 0] [0 6]] (REQUEST)
s 3.000375000 _0_ MAC  --- 0 AODV 106 [0 ffffffff 0 800] ------- [0:255 -1:255 30 0] [0x2 1 2 [1 0] [0 6]] (REQUEST)
s 4.000000000 _0_ AGT  --- 1 tcp 40 [0 0 0 0] ------- [0:0 1:0 32 0] [0 0] 0 0
r 4.000000000 _0_ RTR  --- 1 tcp 40 [0 0 0 0] ------- [0:0 1:0 32 0] [0 0] 0 0
s 7.000000000 _0_ RTR  --- 0 AODV 48 [0 0 0 0] ------- [0:255 -1:255 30 0] [0x2 1 3 [1 0] [0 8]] (REQUEST)
s 7.000075000 _0_ MAC  --- 0 AODV 106 [0 ffffffff 0 800] ------- [0:255 -1:255 30 0] [0x2 1 3 [1 0] [0 8]] (REQUEST)
s 10.000000000 _0_ AGT  --- 2 tcp 40 [0 0 0 0] ------- [0:0 1:0 32 0] [0 0] 0 0
r 10.000000000 _0_ RTR  --- 2 tcp 40 [0 0 0 0] ------- [0:0 1:0 32 0] [0 0] 0 0
s 12.500000000 _0_ RTR  --- 0 AODV 48 [0 0 0 0] ------- [0:255 -1:255 30 0] [0x2 1 4 [1 0] [0 10]] (REQUEST)
s 12.500275000 _0_ MAC  --- 0 AODV 106 [0 ffffffff 0 800] ------- [0:255 -1:255 30 0] [0x2 1 4 [1 0] [0 10]] (REQUEST)
r 12.501123584 _1_ MAC  --- 0 AODV 48 [0 ffffffff 0 800] ------- [0:255 -1:255 30 0] [0x2 1 4 [1 0] [0 10]] (REQUEST)
r 12.501148584 _1_ RTR  --- 0 AODV 48 [0 ffffffff 0 800] ------- [0:255 -1:255 30 0] [0x2 1 4 [1 0] [0 10]] (REQUEST)
s 12.501148584 _1_ RTR  --- 0 AODV 44 [0 0 0 0] ------- [1:255 0:255 30 0] [0x4 1 [1 4] 10.000000] (REPLY)
s 12.501563584 _1_ MAC  --- 0 ARP 86 [0 ffffffff 1 806] ------- [REQUEST 1/1 0/0]
r 12.502252167 _0_ MAC  --- 0 ARP 28 [0 ffffffff 1 806] ------- [REQUEST 1/1 0/0]
s 12.502547167 _0_ MAC  --- 0 RTS 44 [52e 1 0 0] 
r 12.502899751 _1_ MAC  --- 0 RTS 44 [52e 1 0 0] 
s 12.502909751 _1_ MAC  --- 0 CTS 38 [3f4 0 0 0] 
r 12.503214334 _0_ MAC  --- 0 CTS 38 [3f4 0 0 0] 
s 12.503224334 _0_ MAC  --- 0 ARP 86 [13a 1 0 806] ------- [REPLY 0/0 1/1]
r 12.503912917 _1_ MAC  --- 0 ARP 28 [13a 1 0 806] ------- [REPLY 0/0 1/1]
s 12.503922917 _1_ MAC  --- 0 ACK 38 [0 0 0 0] 
r 12.504227501 _0_ MAC  --- 0 ACK 38 [0 0 0 0] 
s 12.504296917 _1_ MAC  --- 0 RTS 44 [5ae 0 1 0] 
r 12.504649501 _0_ MAC  --- 0 RTS 44 [5ae 0 1 0] 
s 12.504659501 _0_ MAC  --- 0 CTS 38 [474 1 0 0] 
r 12.504964084 _1_ MAC  --- 0 CTS 38 [474 1 0 0] 
s 12.504974084 _1_ MAC  --- 0 AODV 102 [13a 0 1 800] ------- [1:255 0:255 30 0] [0x4 1 [1 4] 10.000000] (REPLY)
r 12.505790667 _0_ MAC  --- 0 AODV 44 [13a 0 1 800] ------- [1:255 0:255 30 0] [0x4 1 [1 4] 10.000000] (REPLY)
s 12.505800667 _0_ MAC  --- 0 ACK 38 [0 1 0 0] 
r 12.505815667 _0_ RTR  --- 0 AODV 44 [13a 0 1 800] ------- [1:255 0:255 30 0] [0x4 1 [1 4] 10.000000] (REPLY)
s 12.505815667 _0_ RTR  --- 0 tcp 40 [0 0 0 0] ------- [0:0 1:0 30 1] [0 0] 0 0
r 12.506105250 _1_ MAC  --- 0 ACK 38 [0 1 0 0] 
s 12.506194667 _0_ MAC  --- 0 RTS 44 [58e 1 0 0] 
r 12.506547250 _1_ MAC  --- 0 RTS 44 [58e 1 0 0] 
s 12.506557250 _1_ MAC  --- 0 CTS 38 [454 0 0 0] 
r 12.506861833 _0_ MAC  --- 0 CTS 38 [454 0 0 0] 
s 12.506871833 _0_ MAC  --- 0 tcp 98 [13a 1 0 800] ------- [0:0 1:0 30 1] [0 0] 0 0
r 12.507656416 _1_ MAC  --- 0 tcp 40 [13a 1 0 800] ------- [0:0 1:0 30 1] [0 0] 1 0
s 12.507666416 _1_ MAC  --- 0 ACK 38 [0 0 0 0] 
r 12.507681416 _1_ AGT  --- 0 tcp 40 [13a 1 0 800] ------- [0:0 1:0 30 1] [0 0] 1 0
s 12.507681416 _1_ AGT  --- 3 ack 40 [0 0 0 0] ------- [1:0 0:0 32 0] [0 0] 0 0
r 12.507681416 _1_ RTR  --- 3 ack 40 [0 0 0 0] ------- [1:0 0:0 32 0] [0 0] 0 0
s 12.507681416 _1_ RTR  --- 3 ack 40 [0 0 0 0] ------- [1:0 0:0 30 0] [0 0] 0 0
r 12.507970999 _0_ MAC  --- 0 ACK 38 [0 0 0 0] 
s 12.508540416 _1_ MAC  --- 0 RTS 44 [58e 0 1 0] 
r 12.508892999 _0_ MAC  --- 0 RTS 44 [58e 0 1 0] 
s 12.508902999 _0_ MAC  --- 0 CTS 38 [454 1 0 0] 
r 12.509207582 _1_ MAC  --- 0 CTS 38 [454 1 0 0] 
s 12.509217582 _1_ MAC  --- 3 ack 98 [13a 0 1 800] ------- [1:0 0:0 30 0] [0 0] 0 0
r 12.510002164 _0_ MAC  --- 3 ack 40 [13a 0 1 800] ------- [1:0 0:0 30 0] [0 0] 1 0
s 12.510012164 _0_ MAC  --- 0 ACK 38 [0 1 0 0] 
r 12.510027164 _0_ AGT  --- 3 ack 40 [13a 0 1 800] ------- [1:0 0:0 30 0] [0 0] 1 0
s 12.510027164 _0_ AGT  --- 4 tcp 1040 [0 0 0 0] ------- [0:0 1:0 32 0] [1 0] 0 0
r 12.510027164 _0_ RTR  --- 4 tcp 1040 [0 0 0 0] ------- [0:0 1:0 32 0] [1 0] 0 0
s 12.510027164 _0_ RTR  --- 4 tcp 1040 [0 0 0 0] ------- [0:0 1:0 30 1] [1 0] 0 0
r 12.510316747 _1_ MAC  --- 0 ACK 38 [0 1 0 0] 
s 12.510726164 _0_ MAC  --- 0 RTS 44 [24ce 1 0 0] 
r 12.511078747 _1_ MAC  --- 0 RTS 44 [24ce 1 0 0] 
s 12.511088747 _1_ MAC  --- 0 CTS 38 [2394 0 0 0] 
r 12.511393329 _0_ MAC  --- 0 CTS 38 [2394 0 0 0] 
s 12.511403329 _0_ MAC  --- 4 tcp 1098 [13a 1 0 800] ------- [0:0 1:0 30 1] [1 0] 0 0
s 12.515815667 _0_ RTR  --- 1 tcp 40 [0 0 0 0] ------- [0:0 1:0 30 1] [0 0] 0 0
r 12.520187912 _1_ MAC  --- 4 tcp 1040 [13a 1 0 800] ------- [0:0 1:0 30 1] [1 0] 1 0
s 12.520197912 _1_ MAC  --- 0 ACK 38 [0 0 0 0] 
r 12.520212912 _1_ AGT  --- 4 tcp 1040 [13a 1 0 800] ------- [0:0 1:0 30 1] [1 0] 1 0
s 12.520212912 _1_ AGT  --- 5 ack 40 [0 0 0 0] ------- [1:0 0:0 32 0] [1 0] 0 0
r 12.520212912 _1_ RTR  --- 5 ack 40 [0 0 0 0] ------- [1:0 0:0 32 0] [1 0] 0 0
s 12.520212912 _1_ RTR  --- 5 ack 40 [0 0 0 0] ------- [1:0 0:0 30 0] [1 0] 0 0
r 12.520502494 _0_ MAC  --- 0 ACK 38 [0 0 0 0] 
s 12.520711912 _1_ MAC  --- 0 RTS 44 [58e 0 1 0] 
r 12.521064494 _0_ MAC  --- 0 RTS 44 [58e 0 1 0] 
s 12.521074494 _0_ MAC  --- 0 CTS 38 [454 1 0 0] 
r 12.521379075 _1_ MAC  --- 0 CTS 38 [454 1 0 0] 
s 12.521389075 _1_ MAC  --- 5 ack 98 [13a 0 1 800] ------- [1:0 0:0 30 0] [1 0] 0 0
r 12.522173657 _0_ MAC  --- 5 ack 40 [13a 0 1 800] ------- [1:0 0:0 30 0] [1 0] 1 0
s 12.522183657 _0_ MAC  --- 0 ACK 38 [0 1 0 0] 
r 12.522198657 _0_ AGT  --- 5 ack 40 [13a 0 1 800] ------- [1:0 0:0 30 0] [1 0] 1 0
s 12.522198657 _0_ AGT  --- 6 tcp 1040 [0 0 0 0] ------- [0:0 1:0 32 0] [2 0] 0 0
r 12.522198657 _0_ RTR  --- 6 tcp 1040 [0 0 0 0] ------- [0:0 1:0 32 0] [2 0] 0 0
s 12.522198657 _0_ AGT  --- 7 tcp 1040 [0 0 0 0] ------- [0:0 1:0 32 0] [3 0] 0 0
r 12.522198657 _0_ RTR  --- 7 tcp 1040 [0 0 0 0] ------- [0:0 1:0 32 0] [3 0] 0 0
s 12.522198657 _0_ RTR  --- 6 tcp 1040 [0 0 0 0] ------- [0:0 1:0 30 1] [2 0] 0 0
s 12.522198657 _0_ RTR  --- 7 tcp 1040 [0 0 0 0] ------- [0:0 1:0 30 1] [3 0] 0 0
r 12.522488238 _1_ MAC  --- 0 ACK 38 [0 1 0 0] 
s 12.522877657 _0_ MAC  --- 0 RTS 44 [58e 1 0 0] 
r 12.523230238 _1_ MAC  --- 0 RTS 44 [58e 1 0 0] 
s 12.523240238 _1_ MAC  --- 0 CTS 38 [454 0 0 0] 
r 12.523544820 _0_ MAC  --- 0 CTS 38 [454 0 0 0] 
s 12.523554820 _0_ MAC  --- 1 tcp 98 [13a 1 0 800] ------- [0:0 1:0 30 1] [0 0] 0 0
r 12.524339401 _1_ MAC  --- 1 tcp 40 [13a 1 0 800] ------- [0:0 1:0 30 1] [0 0] 1 0
s 12.524349401 _1_ MAC  --- 0 ACK 38 [0 0 0 0] 
r 12.524364401 _1_ AGT  --- 1 tcp 40 [13a 1 0 800] ------- [0:0 1:0 30 1] [0 0] 1 0
s 12.524364401 _1_ AGT  --- 8 ack 40 [0 0 0 0] ------- [1:0 0:0 32 0] [1 0] 0 0
r 12.524364401 _1_ RTR  --- 8 ack 40 [0 0 0 0] ------- [1:0 0:0 32 0] [1 0] 0 0
s 12.524364401 _1_ RTR  --- 8 ack 40 [0 0 0 0] ------- [1:0 0:0 30 0] [1 0] 0 0
r 12.524653982 _0_ MAC  --- 0 ACK 38 [0 0 0 0] 
s 12.524723401 _1_ MAC  --- 0 RTS 44 [58e 0 1 0] 
r 12.525075982 _0_ MAC  --- 0 RTS 44 [58e 0 1 0] 
s 12.525085982 _0_ MAC  --- 0 CTS 38 [454 1 0 0] 
r 12.525390563 _1_ MAC  --- 0 CTS 38 [454 1 0 0] 
s 12.525400563 _1_ MAC  --- 8 ack 98 [13a 0 1 800] ------- [1:0 0:0 30 0] [1 0] 0 0
s 12.525815667 _0_ RTR  --- 2 tcp 40 [0 0 0 0] ------- [0:0 1:0 30 1] [0 0] 0 0
r 12.526185144 _0_ MAC  --- 8 ack 40 [13a 0 1 800] ------- [1:0 0:0 30 0] [1 0] 1 0
s 12.526195144 _0_ MAC  --- 0 ACK 38 [0 1 0 0] 
r 12.526210144 _0_ AGT  --- 8 ack 40 [13a 0 1 800] ------- [1:0 0:0 30 0] [1 0] 1 0
s 12.526210144 _0_ AGT  --- 9 tcp 1040 [0 0 0 0] ------- [0:0 1:0 32 0] [4 0] 0 0
r 12.526210144 _0_ RTR  --- 9 tcp 1040 [0 0 0 0] ------- [0:0 1:0 32 0] [4 0] 0 0
s 12.526210144 _0_ RTR  --- 9 tcp 1040 [0 0 0 0] ------- [0:0 1:0 30 1] [4 0] 0 0
r 12.526499726 _1_ MAC  --- 0 ACK 38 [0 1 0 0] 
s 12.526869144 _0_ MAC  --- 0 RTS 44 [24ce 1 0 0] 
r 12.527221725 _1_ MAC  --- 0 RTS 44 [24ce 1 0 0] 
s 12.527231725 _1_ MAC  --- 0 CTS 38 [2394 0 0 0] 
r 12.527536306 _0_ MAC  --- 0 CTS 38 [2394 0 0 0] 
s 12.527546306 _0_ MAC  --- 6 tcp 1098 [13a 1 0 800] ------- [0:0 1:0 30 1] [2 0] 0 0
r 12.536330887 _1_ MAC  --- 6 tcp 1040 [13a 1 0 800] ------- [0:0 1:0 30 1] [2 0] 1 0
s 12.536340887 _1_ MAC  --- 0 ACK 38 [0 0 0 0] 
r 12.536355887 _1_ AGT  --- 6 tcp 1040 [13a 1 0 800] ------- [0:0 1:0 30 1] [2 0] 1 0
s 12.536355887 _1_ AGT  --- 10 ack 40 [0 0 0 0] ------- [1:0 0:0 32 0] [2 0] 0 0
r 12.536355887 _1_ RTR  --- 10 ack 40 [0 0 0 0] ------- [1:0 0:0 32 0] [2 0] 0 0
s 12.536355887 _1_ RTR  --- 10 ack 40 [0 0 0 0] ------- [1:0 0:0 30 0] [2 0] 0 0
r 12.536645467 _0_ MAC  --- 0 ACK 38 [0 0 0 0] 
s 12.536715467 _0_ MAC  --- 0 RTS 44 [24ce 1 0 0] 
r 12.537068047 _1_ MAC  --- 0 RTS 44 [24ce 1 0 0] 
s 12.537078047 _1_ MAC  --- 0 CTS 38 [2394 0 0 0] 
r 12.537382627 _0_ MAC  --- 0 CTS 38 [2394 0 0 0] 
s 12.537392627 _0_ MAC  --- 7 tcp 1098 [13a 1 0 800] ------- [0:0 1:0 30 1] [3 0] 0 0
r 12.546177207 _1_ MAC  --- 7 tcp 1040 [13a 1 0 800] ------- [0:0 1:0 30 1] [3 0] 1 0
s 12.546187207 _1_ MAC  --- 0 ACK 38 [0 0 0 0] 
r 12.546202207 _1_ AGT  --- 7 tcp 1040 [13a 1 0 800] ------- [0:0 1:0 30 1] [3 0] 1 0
s 12.546202207 _1_ AGT  --- 11 ack 40 [0 0 0 0] ------- [1:0 0:0 32 0] [3 0] 0 0
r 12.546202207 _1_ RTR  --- 11 ack 40 [0 0 0 0] ------- [1:0 0:0 32 0] [3 0] 0 0
s 12.546202207 _1_ RTR  --- 11 ack 40 [0 0 0 0] ------- [1:0 0:0 30 0] [3 0] 0 0
r 12.546491787 _0_ MAC  --- 0 ACK 38 [0 0 0 0] 
s 12.546741207 _1_ MAC  --- 0 RTS 44 [58e 0 1 0] 
r 12.547093787 _0_ MAC  --- 0 RTS 44 [58e 0 1 0] 
s 12.547103787 _0_ MAC  --- 0 CTS 38 [454 1 0 0] 
r 12.547408366 _1_ MAC  --- 0 CTS 38 [454 1 0 0] 
s 12.547418366 _1_ MAC  --- 10 ack 98 [13a 0 1 800] ------- [1:0 0:0 30 0] [2 0] 0 0
r 12.548202945 _0_ MAC  --- 10 ack 40 [13a 0 1 800] ------- [1:0 0:0 30 0] [2 0] 1 0
s 12.548212945 _0_ MAC  --- 0 ACK 38 [0 1 0 0] 
r 12.548227945 _0_ AGT  --- 10 ack 40 [13a 0 1 800] ------- [1:0 0:0 30 0] [2 0] 1 0
r 12.548517523 _1_ MAC  --- 0 ACK 38 [0 1 0 0] 
s 12.548626945 _0_ MAC  --- 0 RTS 44 [58e 1 0 0] 
r 12.548979523 _1_ MAC  --- 0 RTS 44 [58e 1 0 0] 
s 12.548989523 _1_ MAC  --- 0 CTS 38 [454 0 0 0] 
r 12.549294102 _0_ MAC  --- 0 CTS 38 [454 0 0 0] 
s 12.549304102 _0_ MAC  --- 2 tcp 98 [13a 1 0 800] ------- [0:0 1:0 30 1] [0 0] 0 0
r 12.550088681 _1_ MAC  --- 2 tcp 40 [13a 1 0 800] ------- [0:0 1:0 30 1] [0 0] 1 0
s 12.550098681 _1_ MAC  --- 0 ACK 38 [0 0 0 0] 
r 12.550113681 _1_ AGT  --- 2 tcp 40 [13a 1 0 800] ------- [0:0 1:0 30 1] [0 0] 1 0
s 12.550113681 _1_ AGT  --- 12 ack 40 [0 0 0 0] ------- [1:0 0:0 32 0] [3 0] 0 0
r 12.550113681 _1_ RTR  --- 12 ack 40 [0 0 0 0] ------- [1:0 0:0 32 0] [3 0] 0 0
s 12.550113681 _1_ RTR  --- 12 ack 40 [0 0 0 0] ------- [1:0 0:0 30 0] [3 0] 0 0
r 12.550403260 _0_ MAC  --- 0 ACK 38 [0 0 0 0] 
s 12.550633260 _0_ MAC  --- 0 RTS 44 [24ce 1 0 0] 
r 12.550985838 _1_ MAC  --- 0 RTS 44 [24ce 1 0 0] 
s 12.550995838 _1_ MAC  --- 0 CTS 38 [2394 0 0 0] 
r 12.551300417 _0_ MAC  --- 0 CTS 38 [2394 0 0 0] 
s 12.551310417 _0_ MAC  --- 9 tcp 1098 [13a 1 0 800] ------- [0:0 1:0 30 1] [4 0] 0 0
r 12.560094996 _1_ MAC  --- 9 tcp 1040 [13a 1 0 800] ------- [0:0 1:0 30 1] [4 0] 1 0
s 12.560104996 _1_ MAC  --- 0 ACK 38 [0 0 0 0] 
r 12.560119996 _1_ AGT  --- 9 tcp 1040 [13a 1 0 800] ------- [0:0 1:0 30 1] [4 0] 1 0
s 12.560119996 _1_ AGT  --- 13 ack 40 [0 0 0 0] ------- [1:0 0:0 32 0] [4 0] 0 0
r 12.560119996 _1_ RTR  --- 13 ack 40 [0 0 0 0] ------- [1:0 0:0 32 0] [4 0] 0 0
s 12.560119996 _1_ RTR  --- 13 ack 40 [0 0 0 0] ------- [1:0 0:0 30 0] [4 0] 0 0
r 12.560409573 _0_ MAC  --- 0 ACK 38 [0 0 0 0] 
s 12.560678996 _1_ MAC  --- 0 RTS 44 [58e 0 1 0] 
r 12.561031573 _0_ MAC  --- 0 RTS 44 [58e 0 1 0] 
s 12.561041573 _0_ MAC  --- 0 CTS 38 [454 1 0 0] 
r 12.561346151 _1_ MAC  --- 0 CTS 38 [454 1 0 0] 
s 12.561356151 _1_ MAC  --- 11 ack 98 [13a 0 1 800] ------- [1:0 0:0 30 0] [3 0] 0 0
r 12.562140729 _0_ MAC  --- 11 ack 40 [13a 0 1 800] ------- [1:0 0:0 30 0] [3 0] 1 0
s 12.562150729 _0_ MAC  --- 0 ACK 38 [0 1 0 0] 
r 12.562165729 _0_ AGT  --- 11 ack 40 [13a 0 1 800] ------- [1:0 0:0 30 0] [3 0] 1 0
s 12.562165729 _0_ AGT  --- 14 tcp 1040 [0 0 0 0] ------- [0:0 1:0 32 0] [5 0] 0 0
r 12.562165729 _0_ RTR  --- 14 tcp 1040 [0 0 0 0] ------- [0:0 1:0 32 0] [5 0] 0 0
s 12.562165729 _0_ RTR  --- 14 tcp 1040 [0 0 0 0] ------- [0:0 1:0 30 1] [5 0] 0 0
r 12.562455306 _1_ MAC  --- 0 ACK 38 [0 1 0 0] 
s 12.562884729 _0_ MAC  --- 0 RTS 44 [24ce 1 0 0] 
r 12.563237306 _1_ MAC  --- 0 RTS 44 [24ce 1 0 0] 
s 12.563247306 _1_ MAC  --- 0 CTS 38 [2394 0 0 0] 
r 12.563551883 _0_ MAC  --- 0 CTS 38 [2394 0 0 0] 
s 12.563561883 _0_ MAC  --- 14 tcp 1098 [13a 1 0 800] ------- [0:0 1:0 30 1] [5 0] 0 0
r 12.572346461 _1_ MAC  --- 14 tcp 1040 [13a 1 0 800] ------- [0:0 1:0 30 1] [5 0] 1 0
s 12.572356461 _1_ MAC  --- 0 ACK 38 [0 0 0 0] 
r 12.572371461 _1_ AGT  --- 14 tcp 1040 [13a 1 0 800] ------- [0:0 1:0 30 1] [5 0] 1 0
s 12.572371461 _1_ AGT  --- 15 ack 40 [0 0 0 0] ------- [1:0 0:0 32 0] [5 0] 0 0
r 12.572371461 _1_ RTR  --- 15 ack 40 [0 0 0 0] ------- [1:0 0:0 32 0] [5 0] 0 0
s 12.572371461 _1_ RTR  --- 15 ack 40 [0 0 0 0] ------- [1:0 0:0 30 0] [5 0] 0 0
r 12.572661037 _0_ MAC  --- 0 ACK 38 [0 0 0 0] 
s 12.572750461 _1_ MAC  --- 0 RTS 44 [58e 0 1 0] 
r 12.573103037 _0_ MAC  --- 0 RTS 44 [58e 0 1 0] 
s 12.573113037 _0_ MAC  --- 0 CTS 38 [454 1 0 0] 
r 12.573417614 _1_ MAC  --- 0 CTS 38 [454 1 0 0] 
s 12.573427614 _1_ MAC  --- 12 ack 98 [13a 0 1 800] ------- [1:0 0:0 30 0] [3 0] 0 0
r 12.574212190 _0_ MAC  --- 12 ack 40 [13a 0 1 800] ------- [1:0 0:0 30 0] [3 0] 1 0
s 12.574222190 _0_ MAC  --- 0 ACK 38 [0 1 0 0] 
r 12.574237190 _0_ AGT  --- 12 ack 40 [13a 0 1 800] ------- [1:0 0:0 30 0] [3 0] 1 0
s 12.574237190 _0_ AGT  --- 16 tcp 1040 [0 0 0 0] ------- [0:0 1:0 32 0] [6 0] 0 0
r 12.574237190 _0_ RTR  --- 16 tcp 1040 [0 0 0 0] ------- [0:0 1:0 32 0] [6 0] 0 0
s 12.574237190 _0_ RTR  --- 16 tcp 1040 [0 0 0 0] ------- [0:0 1:0 30 1] [6 0] 0 0
r 12.574526767 _1_ MAC  --- 0 ACK 38 [0 1 0 0] 
s 12.574936767 _1_ MAC  --- 0 RTS 44 [58e 0 1 0] 
r 12.575289343 _0_ MAC  --- 0 RTS 44 [58e 0 1 0] 
s 12.575299343 _0_ MAC  --- 0 CTS 38 [454 1 0 0] 
r 12.575603919 _1_ MAC  --- 0 CTS 38 [454 1 0 0] 
s 12.575613919 _1_ MAC  --- 13 ack 98 [13a 0 1 800] ------- [1:0 0:0 30 0] [4 0] 0 0
r 12.576398495 _0_ MAC  --- 13 ack 40 [13a 0 1 800] ------- [1:0 0:0 30 0] [4 0] 1 0
s 12.576408495 _0_ MAC  --- 0 ACK 38 [0 1 0 0] 
r 12.576423495 _0_ AGT  --- 13 ack 40 [13a 0 1 800] ------- [1:0 0:0 30 0] [4 0] 1 0
s 12.576423495 _0_ AGT  --- 17 tcp 1040 [0 0 0 0] ------- [0:0 1:0 32 0] [7 0] 0 0
r 12.576423495 _0_ RTR  --- 17 tcp 1040 [0 0 0 0] ------- [0:0 1:0 32 0] [7 0] 0 0
s 12.576423495 _0_ RTR  --- 17 tcp 1040 [0 0 0 0] ------- [0:0 1:0 30 1] [7 0] 0 0
r 12.576713071 _1_ MAC  --- 0 ACK 38 [0 1 0 0] 
s 12.576803071 _1_ MAC  --- 0 RTS 44 [58e 0 1 0] 
r 12.577155648 _0_ MAC  --- 0 RTS 44 [58e 0 1 0] 
s 12.577165648 _0_ MAC  --- 0 CTS 38 [454 1 0 0] 
r 12.577470224 _1_ MAC  --- 0 CTS 38 [454 1 0 0] 
s 12.577480224 _1_ MAC  --- 15 ack 98 [13a 0 1 800] ------- [1:0 0:0 30 0] [5 0] 0 0
r 12.578264800 _0_ MAC  --- 15 ack 40 [13a 0 1 800] ------- [1:0 0:0 30 0] [5 0] 1 0
s 12.578274800 _0_ MAC  --- 0 ACK 38 [0 1 0 0] 
r 12.578289800 _0_ AGT  --- 15 ack 40 [13a 0 1 800] ------- [1:0 0:0 30 0] [5 0] 1 0
s 12.578289800 _0_ AGT  --- 18 tcp 1040 [0 0 0 0] ------- [0:0 1:0 32 0] [8 0] 0 0
r 12.578289800 _0_ RTR  --- 18 tcp 1040 [0 0 0 0] ------- [0:0 1:0 32 0] [8 0] 0 0
s 12.578289800 _0_ RTR  --- 18 tcp 1040 [0 0 0 0] ------- [0:0 1:0 30 1] [8 0] 0 0
r 12.578579376 _1_ MAC  --- 0 ACK 38 [0 1 0 0] 
s 12.578748800 _0_ MAC  --- 0 RTS 44 [24ce 1 0 0] 
r 12.579101376 _1_ MAC  --- 0 RTS 44 [24ce 1 0 0] 
s 12.579111376 _1_ MAC  --- 0 CTS 38 [2394 0 0 0] 
r 12.579415951 _0_ MAC  --- 0 CTS 38 [2394 0 0 0] 
s 12.579425951 _0_ MAC  --- 16 tcp 1098 [13a 1 0 800] ------- [0:0 1:0 30 1] [6 0] 0 0
r 12.588210527 _1_ MAC  --- 16 tcp 1040 [13a 1 0 800] ------- [0:0 1:0 30 1] [6 0] 1 0
s 12.588220527 _1_ MAC  --- 0 ACK 38 [0 0 0 0] 
r 12.588235527 _1_ AGT  --- 16 tcp 1040 [13a 1 0 800] ------- [0:0 1:0 30 1] [6 0] 1 0
s 12.588235527 _1_ AGT  --- 19 ack 40 [0 0 0 0] ------- [1:0 0:0 32 0] [6 0] 0 0
r 12.588235527 _1_ RTR  --- 19 ack 40 [0 0 0 0] ------- [1:0 0:0 32 0] [6 0] 0 0
s 12.588235527 _1_ RTR  --- 19 ack 40 [0 0 0 0] ------- [1:0 0:0 30 0] [6 0] 0 0
r 12.588525102 _0_ MAC  --- 0 ACK 38 [0 0 0 0] 
s 12.588774527 _1_ MAC  --- 0 RTS 44 [58e 0 1 0] 
r 12.589127102 _0_ MAC  --- 0 RTS 44 [58e 0 1 0] 
s 12.589137102 _0_ MAC  --- 0 CTS 38 [454 1 0 0] 
r 12.589441677 _1_ MAC  --- 0 CTS 38 [454 1 0 0] 
s 12.589451677 _1_ MAC  --- 19 ack 98 [13a 0 1 800] ------- [1:0 0:0 30 0] [6 0] 0 0
r 12.590236252 _0_ MAC  --- 19 ack 40 [13a 0 1 800] ------- [1:0 0:0 30 0] [6 0] 1 0
s 12.590246252 _0_ MAC  --- 0 ACK 38 [0 1 0 0] 
r 12.590261252 _0_ AGT  --- 19 ack 40 [13a 0 1 800] ------- [1:0 0:0 30 0] [6 0] 1 0
s 12.590261252 _0_ AGT  --- 20 tcp 1040 [0 0 0 0] ------- [0:0 1:0 32 0] [9 0] 0 0
r 12.590261252 _0_ RTR  --- 20 tcp 1040 [0 0 0 0] ------- [0:0 1:0 32 0] [9 0] 0 0
s 12.590261252 _0_ RTR  --- 20 tcp 1040 [0 0 0 0] ------- [0:0 1:0 30 1] [9 0] 0 0
r 12.590550827 _1_ MAC  --- 0 ACK 38 [0 1 0 0] 
s 12.590780252 _0_ MAC  --- 0 RTS 44 [24ce 1 0 0] 
r 12.591132827 _1_ MAC  --- 0 RTS 44 [24ce 1 0 0] 
s 12.591142827 _1_ MAC  --- 0 CTS 38 [2394 0 0 0] 
r 12.591447401 _0_ MAC  --- 0 CTS 38 [2394 0 0 0] 
s 12.591457401 _0_ MAC  --- 17 tcp 1098 [13a 1 0 800] ------- [0:0 1:0 30 1] [7 0] 0 0
r 12.600241976 _1_ MAC  --- 17 tcp 1040 [13a 1 0 800] ------- [0:0 1:0 30 1] [7 0] 1 0
s 12.600251976 _1_ MAC  --- 0 ACK 38 [0 0 0 0] 
r 12.600266976 _1_ AGT  --- 17 tcp 1040 [13a 1 0 800] ------- [0:0 1:0 30 1] [7 0] 1 0
s 12.600266976 _1_ AGT  --- 21 ack 40 [0 0 0 0] ------- [1:0 0:0 32 0] [7 0] 0 0
r 12.600266976 _1_ RTR  --- 21 ack 40 [0 0 0 0] ------- [1:0 0:0 32 0] [7 0] 0 0
s 12.600266976 _1_ RTR  --- 21 ack 40 [0 0 0 0] ------- [1:0 0:0 30 0] [7 0] 0 0
r 12.600556550 _0_ MAC  --- 0 ACK 38 [0 0 0 0] 
s 12.600685976 _1_ MAC  --- 0 RTS 44 [58e 0 1 0] 
r 12.601038550 _0_ MAC  --- 0 RTS 44 [58e 0 1 0] 
s 12.601048550 _0_ MAC  --- 0 CTS 38 [454 1 0 0] 
r 12.601353123 _1_ MAC  --- 0 CTS 38 [454 1 0 0] 
s 12.601363123 _1_ MAC  --- 21 ack 98 [13a 0 1 800] ------- [1:0 0:0 30 0] [7 0] 0 0
r 12.602147697 _0_ MAC  --- 21 ack 40 [13a 0 1 800] ------- [1:0 0:0 30 0] [7 0] 1 0
s 12.602157697 _0_ MAC  --- 0 ACK 38 [0 1 0 0] 
r 12.602172697 _0_ AGT  --- 21 ack 40 [13a 0 1 800] ------- [1:0 0:0 30 0] [7 0] 1 0
s 12.602172697 _0_ AGT  --- 22 tcp 1040 [0 0 0 0] ------- [0:0 1:0 32 0] [10 0] 0 0
r 12.602172697 _0_ RTR  --- 22 tcp 1040 [0 0 0 0] ------- [0:0 1:0 32 0] [10 0] 0 0
s 12.602172697 _0_ AGT  --- 23 tcp 1040 [0 0 0 0] ------- [0:0 1:0 32 0] [11 0] 0 0
r 12.602172697 _0_ RTR  --- 23 tcp 1040 [0 0 0 0] ------- [0:0 1:0 32 0] [11 0] 0 0
s 12.602172697 _0_ RTR  --- 22 tcp 1040 [0 0 0 0] ------- [0:0 1:0 30 1] [10 0] 0 0
s 12.602172697 _0_ RTR  --- 23 tcp 1040 [0 0 0 0] ------- [0:0 1:0 30 1] [11 0] 0 0
r 12.602462271 _1_ MAC  --- 0 ACK 38 [0 1 0 0] 
s 12.602731697 _0_ MAC  --- 0 RTS 44 [24ce 1 0 0] 
r 12.603084271 _1_ MAC  --- 0 RTS 44 [24ce 1 0 0] 
s 12.603094271 _1_ MAC  --- 0 CTS 38 [2394 0 0 0] 
r 12.603398844 _0_ MAC  --- 0 CTS 38 [2394 0 0 0] 
s 12.603408844 _0_ MAC  --- 18 tcp 1098 [13a 1 0 800] ------- [0:0 1:0 30 1] [8 0] 0 0
r 12.612193417 _1_ MAC  --- 18 tcp 1040 [13a 1 0 800] ------- [0:0 1:0 30 1] [8 0] 1 0
s 12.612203417 _1_ MAC  --- 0 ACK 38 [0 0 0 0] 
r 12.612218417 _1_ AGT  --- 18 tcp 1040 [13a 1 0 800] ------- [0:0 1:0 30 1] [8 0] 1 0
s 12.612218417 _1_ AGT  --- 24 ack 40 [0 0 0 0] ------- [1:0 0:0 32 0] [8 0] 0 0
r 12.612218417 _1_ RTR  --- 24 ack 40 [0 0 0 0] ------- [1:0 0:0 32 0] [8 0] 0 0
s 12.612218417 _1_ RTR  --- 24 ack 40 [0 0 0 0] ------- [1:0 0:0 30 0] [8 0] 0 0
r 12.612507990 _0_ MAC  --- 0 ACK 38 [0 0 0 0] 
s 12.612657417 _1_ MAC  --- 0 RTS 44 [58e 0 1 0] 
r 12.613009990 _0_ MAC  --- 0 RTS 44 [58e 0 1 0] 
s 12.613019990 _0_ MAC  --- 0 CTS 38 [454 1 0 0] 
r 12.613324563 _1_ MAC  --- 0 CTS 38 [454 1 0 0] 
s 12.613334563 _1_ MAC  --- 24 ack 98 [13a 0 1 800] ------- [1:0 0:0 30 0] [8 0] 0 0
r 12.614119135 _0_ MAC  --- 24 ack 40 [13a 0 1 800] ------- [1:0 0:0 30 0] [8 0] 1 0
s 12.614129135 _0_ MAC  --- 0 ACK 38 [0 1 0 0] 
r 12.614144135 _0_ AGT  --- 24 ack 40 [13a 0 1 800] ------- [1:0 0:0 30 0] [8 0] 1 0
s 12.614144135 _0_ AGT  --- 25 tcp 1040 [0 0 0 0] ------- [0:0 1:0 32 0] [12 0] 0 0
r 12.614144135 _0_ RTR  --- 25 tcp 1040 [0 0 0 0] ------- [0:0 1:0 32 0] [12 0] 0 0
s 12.614144135 _0_ RTR  --- 25 tcp 1040 [0 0 0 0] ------- [0:0 1:0 30 1] [12 0] 0 0
r 12.614433707 _1_ MAC  --- 0 ACK 38 [0 1 0 0] 
s 12.614923135 _0_ MAC  --- 0 RTS 44 [24ce 1 0 0] 
r 12.615275707 _1_ MAC  --- 0 RTS 44 [24ce 1 0 0] 
s 12.615285707 _1_ MAC  --- 0 CTS 38 [2394 0 0 0] 
r 12.615590280 _0_ MAC  --- 0 CTS 38 [2394 0 0 0] 
s 12.615600280 _0_ MAC  --- 20 tcp 1098 [13a 1 0 800] ------- [0:0 1:0 30 1] [9 0] 0 0
r 12.624384852 _1_ MAC  --- 20 tcp 1040 [13a 1 0 800] ------- [0:0 1:0 30 1] [9 0] 1 0
s 12.624394852 _1_ MAC  --- 0 ACK 38 [0 0 0 0] 
r 12.624409852 _1_ AGT  --- 20 tcp 1040 [13a 1 0 800] ------- [0:0 1:0 30 1] [9 0] 1 0
s 12.624409852 _1_ AGT  --- 26 ack 40 [0 0 0 0] ------- [1:0 0:0 32 0] [9 0] 0 0
r 12.624409852 _1_ RTR  --- 26 ack 40 [0 0 0 0] ------- [1:0 0:0 32 0] [9 0] 0 0
s 12.624409852 _1_ RTR  --- 26 ack 40 [0 0 0 0] ------- [1:0 0:0 30 0] [9 0] 0 0
r 12.624699423 _0_ MAC  --- 0 ACK 38 [0 0 0 0] 
s 12.624948852 _1_ MAC  --- 0 RTS 44 [58e 0 1 0] 
r 12.625301423 _0_ MAC  --- 0 RTS 44 [58e 0 1 0] 
s 12.625311423 _0_ MAC  --- 0 CTS 38 [454 1 0 0] 
r 12.625615995 _1_ MAC  --- 0 CTS 38 [454 1 0 0] 
s 12.625625995 _1_ MAC  --- 26 ack 98 [13a 0 1 800] ------- [1:0 0:0 30 0] [9 0] 0 0
r 12.626410566 _0_ MAC  --- 26 ack 40 [13a 0 1 800] ------- [1:0 0:0 30 0] [9 0] 1 0
s 12.626420566 _0_ MAC  --- 0 ACK 38 [0 1 0 0] 
r 12.626435566 _0_ AGT  --- 26 ack 40 [13a 0 1 800] ------- [1:0 0:0 30 0] [9 0] 1 0
s 12.626435566 _0_ AGT  --- 27 tcp 1040 [0 0 0 0] ------- [0:0 1:0 32 0] [13 0] 0 0
r 12.626435566 _0_ RTR  --- 27 tcp 1040 [0 0 0 0] ------- [0:0 1:0 32 0] [13 0] 0 0
s 12.626435566 _0_ RTR  --- 27 tcp 1040 [0 0 0 0] ------- [0:0 1:0 30 1] [13 0] 0 0
r 12.626725137 _1_ MAC  --- 0 ACK 38 [0 1 0 0] 
s 12.627174566 _0_ MAC  --- 0 RTS 44 [24ce 1 0 0] 
r 12.627527137 _1_ MAC  --- 0 RTS 44 [24ce 1 0 0] 
s 12.627537137 _1_ MAC  --- 0 CTS 38 [2394 0 0 0] 
r 12.627841708 _0_ MAC  --- 0 CTS 38 [2394 0 0 0] 
s 12.627851708 _0_ MAC  --- 22 tcp 1098 [13a 1 0 800] ------- [0:0 1:0 30 1] [10 0] 0 0
r 12.636636279 _1_ MAC  --- 22 tcp 1040 [13a 1 0 800] ------- [0:0 1:0 30 1] [10 0] 1 0
s 12.636646279 _1_ MAC  --- 0 ACK 38 [0 0 0 0] 
r 12.636661279 _1_ AGT  --- 22 tcp 1040 [13a 1 0 800] ------- [0:0 1:0 30 1] [10 0] 1 0
s 12.636661279 _1_ AGT  --- 28 ack 40 [0 0 0 0] ------- [1:0 0:0 32 0] [10 0] 0 0
r 12.636661279 _1_ RTR  --- 28 ack 40 [0 0 0 0] ------- [1:0 0:0 32 0] [10 0] 0 0
s 12.636661279 _1_ RTR  --- 28 ack 40 [0 0 0 0] ------- [1:0 0:0 30 0] [10 0] 0 0
r 12.636950849 _0_ MAC  --- 0 ACK 38 [0 0 0 0] 
s 12.637120279 _1_ MAC  --- 0 RTS 44 [58e 0 1 0] 
r 12.637472849 _0_ MAC  --- 0 RTS 44 [58e 0 1 0] 
s 12.637482849 _0_ MAC  --- 0 CTS 38 [454 1 0 0] 
r 12.637787419 _1_ MAC  --- 0 CTS 38 [454 1 0 0] 
s 12.637797419 _1_ MAC  --- 28 ack 98 [13a 0 1 800] ------- [1:0 0:0 30 0] [10 0] 0 0
r 12.638581989 _0_ MAC  --- 28 ack 40 [13a 0 1 800] ------- [1:0 0:0 30 0] [10 0] 1 0
s 12.638591989 _0_ MAC  --- 0 ACK 38 [0 1 0 0] 
r 12.638606989 _0_ AGT  --- 28 ack 40 [13a 0 1 800] ------- [1:0 0:0 30 0] [10 0] 1 0
s 12.638606989 _0_ AGT  --- 29 tcp 1040 [0 0 0 0] ------- [0:0 1:0 32 0] [14 0] 0 0
r 12.638606989 _0_ RTR  --- 29 tcp 1040 [0 0 0 0] ------- [0:0 1:0 32 0] [14 0] 0 0
s 12.638606989 _0_ RTR  --- 29 tcp 1040 [0 0 0 0] ------- [0:0 1:0 30 1] [14 0] 0 0
r 12.638896559 _1_ MAC  --- 0 ACK 38 [0 1 0 0] 
s 12.639185989 _0_ MAC  --- 0 RTS 44 [24ce 1 0 0] 
r 12.639538559 _1_ MAC  --- 0 RTS 44 [24ce 1 0 0] 
s 12.639548559 _1_ MAC  --- 0 CTS 38 [2394 0 0 0] 
r 12.639853129 _0_ MAC  --- 0 CTS 38 [2394 0 0 0] 
s 12.639863129 _0_ MAC  --- 23 tcp 1098 [13a 1 0 800] ------- [0:0 1:0 30 1] [11 0] 0 0
r 12.648647699 _1_ MAC  --- 23 tcp 1040 [13a 1 0 800] ------- [0:0 1:0 30 1] [11 0] 1 0
s 12.648657699 _1_ MAC  --- 0 ACK 38 [0 0 0 0] 
r 12.648672699 _1_ AGT  --- 23 tcp 1040 [13a 1 0 800] ------- [0:0 1:0 30 1] [11 0] 1 0
s 12.648672699 _1_ AGT  --- 30 ack 40 [0 0 0 0] ------- [1:0 0:0 32 0] [11 0] 0 0
r 12.648672699 _1_ RTR  --- 30 ack 40 [0 0 0 0] ------- [1:0 0:0 32 0] [11 0] 0 0
s 12.648672699 _1_ RTR  --- 30 ack 40 [0 0 0 0] ------- [1:0 0:0 30 0] [11 0] 0 0
r 12.648962268 _0_ MAC  --- 0 ACK 38 [0 0 0 0] 
s 12.649291699 _1_ MAC  --- 0 RTS 44 [58e 0 1 0] 
r 12.649644268 _0_ MAC  --- 0 RTS 44 [58e 0 1 0] 
s 12.649654268 _0_ MAC  --- 0 CTS 38 [454 1 0 0] 
r 12.649958837 _1_ MAC  --- 0 CTS 38 [454 1 0 0] 
s 12.649968837 _1_ MAC  --- 30 ack 98 [13a 0 1 800] ------- [1:0 0:0 30 0] [11 0] 0 0
r 12.650753406 _0_ MAC  --- 30 ack 40 [13a 0 1 800] ------- [1:0 0:0 30 0] [11 0] 1 0
s 12.650763406 _0_ MAC  --- 0 ACK 38 [0 1 0 0] 
r 12.650778406 _0_ AGT  --- 30 ack 40 [13a 0 1 800] ------- [1:0 0:0 30 0] [11 0] 1 0
s 12.650778406 _0_ AGT  --- 31 tcp 1040 [0 0 0 0] ------- [0:0 1:0 32 0] [15 0] 0 0
r 12.650778406 _0_ RTR  --- 31 tcp 1040 [0 0 0 0] ------- [0:0 1:0 32 0] [15 0] 0 0
s 12.650778406 _0_ RTR  --- 31 tcp 1040 [0 0 0 0] ------- [0:0 1:0 30 1] [15 0] 0 0
r 12.651067975 _1_ MAC  --- 0 ACK 38 [0 1 0 0] 
s 12.651137406 _0_ MAC  --- 0 RTS 44 [24ce 1 0 0] 
r 12.651489975 _1_ MAC  --- 0 RTS 44 [24ce 1 0 0] 
s 12.651499975 _1_ MAC  --- 0 CTS 38 [2394 0 0 0] 
r 12.651804543 _0_ MAC  --- 0 CTS 38 [2394 0 0 0] 
s 12.651814543 _0_ MAC  --- 25 tcp 1098 [13a 1 0 800] ------- [0:0 1:0 30 1] [12 0] 0 0
r 12.660599112 _1_ MAC  --- 25 tcp 1040 [13a 1 0 800] ------- [0:0 1:0 30 1] [12 0] 1 0
s 12.660609112 _1_ MAC  --- 0 ACK 38 [0 0 0 0] 
r 12.660624112 _1_ AGT  --- 25 tcp 1040 [13a 1 0 800] ------- [0:0 1:0 30 1] [12 0] 1 0
s 12.660624112 _1_ AGT  --- 32 ack 40 [0 0 0 0] ------- [1:0 0:0 32 0] [12 0] 0 0
r 12.660624112 _1_ RTR  --- 32 ack 40 [0 0 0 0] ------- [1:0 0:0 32 0] [12 0] 0 0
s 12.660624112 _1_ RTR  --- 32 ack 40 [0 0 0 0] ------- [1:0 0:0 30 0] [12 0] 0 0
r 12.660913680 _0_ MAC  --- 0 ACK 38 [0 0 0 0] 
s 12.661143112 _1_ MAC  --- 0 RTS 44 [58e 0 1 0] 
r 12.661495680 _0_ MAC  --- 0 RTS 44 [58e 0 1 0] 
s 12.661505680 _0_ MAC  --- 0 CTS 38 [454 1 0 0] 
r 12.661810248 _1_ MAC  --- 0 CTS 38 [454 1 0 0] 
s 12.661820248 _1_ MAC  --- 32 ack 98 [13a 0 1 800] ------- [1:0 0:0 30 0] [12 0] 0 0
r 12.662604815 _0_ MAC  --- 32 ack 40 [13a 0 1 800] ------- [1:0 0:0 30 0] [12 0] 1 0
s 12.662614815 _0_ MAC  --- 0 ACK 38 [0 1 0 0] 
r 12.662629815 _0_ AGT  --- 32 ack 40 [13a 0 1 800] ------- [1:0 0:0 30 0] [12 0] 1 0
s 12.662629815 _0_ AGT  --- 33 tcp 1040 [0 0 0 0] ------- [0:0 1:0 32 0] [16 0] 0 0
r 12.662629815 _0_ RTR  --- 33 tcp 1040 [0 0 0 0] ------- [0:0 1:0 32 0] [16 0] 0 0
s 12.662629815 _0_ AGT  --- 34 tcp 1040 [0 0 0 0] ------- [0:0 1:0 32 0] [17 0] 0 0
r 12.662629815 _0_ RTR  --- 34 tcp 1040 [0 0 0 0] ------- [0:0 1:0 32 0] [17 0] 0 0
s 12.662629815 _0_ RTR  --- 33 tcp 1040 [0 0 0 0] ------- [0:0 1:0 30 1] [16 0] 0 0
s 12.662629815 _0_ RTR  --- 34 tcp 1040 [0 0 0 0] ------- [0:0 1:0 30 1] [17 0] 0 0
r 12.662919383 _1_ MAC  --- 0 ACK 38 [0 1 0 0] 
s 12.663088815 _0_ MAC  --- 0 RTS 44 [24ce 1 0 0] 
r 12.663441383 _1_ MAC  --- 0 RTS 44 [24ce 1 0 0] 
s 12.663451383 _1_ MAC  --- 0 CTS 38 [2394 0 0 0] 
r 12.663755950 _0_ MAC  --- 0 CTS 38 [2394 0 0 0] 
s 12.663765950 _0_ MAC  --- 27 tcp 1098 [13a 1 0 800] ------- [0:0 1:0 30 1] [13 0] 0 0
r 12.672550518 _1_ MAC  --- 27 tcp 1040 [13a 1 0 800] ------- [0:0 1:0 30 1] [13 0] 1 0
s 12.672560518 _1_ MAC  --- 0 ACK 38 [0 0 0 0] 
r 12.672575518 _1_ AGT  --- 27 tcp 1040 [13a 1 0 800] ------- [0:0 1:0 30 1] [13 0] 1 0
s 12.672575518 _1_ AGT  --- 35 ack 40 [0 0 0 0] ------- [1:0 0:0 32 0] [13 0] 0 0
r 12.672575518 _1_ RTR  --- 35 ack 40 [0 0 0 0] ------- [1:0 0:0 32 0] [13 0] 0 0
s 12.672575518 _1_ RTR  --- 35 ack 40 [0 0 0 0] ------- [1:0 0:0 30 0] [13 0] 0 0
r 12.672865085 _0_ MAC  --- 0 ACK 38 [0 0 0 0] 
s 12.672915085 _0_ MAC  --- 0 RTS 44 [24ce 1 0 0] 
r 12.673267651 _1_ MAC  --- 0 RTS 44 [24ce 1 0 0] 
s 12.673277651 _1_ MAC  --- 0 CTS 38 [2394 0 0 0] 
r 12.673582218 _0_ MAC  --- 0 CTS 38 [2394 0 0 0] 
s 12.673592218 _0_ MAC  --- 29 tcp 1098 [13a 1 0 800] ------- [0:0 1:0 30 1] [14 0] 0 0
r 12.682376784 _1_ MAC  --- 29 tcp 1040 [13a 1 0 800] ------- [0:0 1:0 30 1] [14 0] 1 0
s 12.682386784 _1_ MAC  --- 0 ACK 38 [0 0 0 0] 
r 12.682401784 _1_ AGT  --- 29 tcp 1040 [13a 1 0 800] ------- [0:0 1:0 30 1] [14 0] 1 0
s 12.682401784 _1_ AGT  --- 36 ack 40 [0 0 0 0] ------- [1:0 0:0 32 0] [14 0] 0 0
r 12.682401784 _1_ RTR  --- 36 ack 40 [0 0 0 0] ------- [1:0 0:0 32 0] [14 0] 0 0
s 12.682401784 _1_ RTR  --- 36 ack 40 [0 0 0 0] ------- [1:0 0:0 30 0] [14 0] 0 0
r 12.682691350 _0_ MAC  --- 0 ACK 38 [0 0 0 0] 
s 12.682961350 _0_ MAC  --- 0 RTS 44 [24ce 1 0 0] 
r 12.683313916 _1_ MAC  --- 0 RTS 44 [24ce 1 0 0] 
s 12.683323916 _1_ MAC  --- 0 CTS 38 [2394 0 0 0] 
r 12.683628481 _0_ MAC  --- 0 CTS 38 [2394 0 0 0] 
s 12.683638481 _0_ MAC  --- 31 tcp 1098 [13a 1 0 800] ------- [0:0 1:0 30 1] [15 0] 0 0
r 12.692423047 _1_ MAC  --- 31 tcp 1040 [13a 1 0 800] ------- [0:0 1:0 30 1] [15 0] 1 0
s 12.692433047 _1_ MAC  --- 0 ACK 38 [0 0 0 0] 
r 12.692448047 _1_ AGT  --- 31 tcp 1040 [13a 1 0 800] ------- [0:0 1:0 30 1] [15 0] 1 0