n -t * -s 0  -x 0 -y 0 -Z 0 -z 20  -v circle -c black
n -t * -s 1  -x 0 -y 0 -Z 0 -z 20  -v circle -c black
V -t * -v 1.0a5 -a 0
W -t * -x 500 -y 500
A -t * -n 1 -p 0 -o 0x7fffffff -c 30 -a 1
A -t * -h 1 -m 1073741823 -s 0
n -t 1.000000 -s 0 -x 10.000000 -y 20.000000 -U 20.801257 -V 13.867505 -T 23.075528
n -t 1.000000 -s 1 -x 430.000000 -y 320.000000 -U -2.823420 -V -4.126536 -T 46.043458
+ -t 1.000000000 -s 0 -d -1 -p tcp -e 40 -c 2 -a 0 -i 0 -k AGT 
- -t 1.000000000 -s 0 -d -1 -p tcp -e 40 -c 2 -a 0 -i 0 -k AGT
h -t 1.000000000 -s 0 -d -1 -p tcp -e 40 -c 2 -a 0 -i 0 -k AGT
+ -t 1.000000000 -s 0 -d -1 -p AODV -e 48 -c 2 -a 0 -i 0 -k RTR 
- -t 1.000000000 -s 0 -d -1 -p AODV -e 48 -c 2 -a 0 -i 0 -k RTR
h -t 1.000000000 -s 0 -d -1 -p AODV -e 48 -c 2 -a 0 -i 0 -k RTR
+ -t 1.000115000 -s 0 -d -1 -p AODV -e 106 -c 2 -a 0 -i 0 -k MAC 
- -t 1.000115000 -s 0 -d -1 -p AODV -e 106 -c 2 -a 0 -i 0 -k MAC
h -t 1.000115000 -s 0 -d -1 -p AODV -e 106 -c 2 -a 0 -i 0 -k MAC
+ -t 3.000000000 -s 0 -d -1 -p AODV -e 48 -c 2 -a 0 -i 0 -k RTR 
- -t 3.000000000 -s 0 -d -1 -p AODV -e 48 -c 2 -a 0 -i 0 -k RTR
h -t 3.000000000 -s 0 -d -1 -p AODV -e 48 -c 2 -a 0 -i 0 -k RTR
+ -t 3.000375000 -s 0 -d -1 -p AODV -e 106 -c 2 -a 0 -i 0 -k MAC 
- -t 3.000375000 -s 0 -d -1 -p AODV -e 106 -c 2 -a 0 -i 0 -k MAC
h -t 3.000375000 -s 0 -d -1 -p AODV -e 106 -c 2 -a 0 -i 0 -k MAC
+ -t 4.000000000 -s 0 -d -1 -p tcp -e 40 -c 2 -a 0 -i 1 -k AGT 
- -t 4.000000000 -s 0 -d -1 -p tcp -e 40 -c 2 -a 0 -i 1 -k AGT
h -t 4.000000000 -s 0 -d -1 -p tcp -e 40 -c 2 -a 0 -i 1 -k AGT
+ -t 7.000000000 -s 0 -d -1 -p AODV -e 48 -c 2 -a 0 -i 0 -k RTR 
- -t 7.000000000 -s 0 -d -1 -p AODV -e 48 -c 2 -a 0 -i 0 -k RTR
h -t 7.000000000 -s 0 -d -1 -p AODV -e 48 -c 2 -a 0 -i 0 -k RTR
+ -t 7.000075000 -s 0 -d -1 -p AODV -e 106 -c 2 -a 0 -i 0 -k MAC 
- -t 7.000075000 -s 0 -d -1 -p AODV -e 106 -c 2 -a 0 -i 0 -k MAC
h -t 7.000075000 -s 0 -d -1 -p AODV -e 106 -c 2 -a 0 -i 0 -k MAC
+ -t 10.000000000 -s 0 -d -1 -p tcp -e 40 -c 2 -a 0 -i 2 -k AGT 
- -t 10.000000000 -s 0 -d -1 -p tcp -e 40 -c 2 -a 0 -i 2 -k AGT
h -t 10.000000000 -s 0 -d -1 -p tcp -e 40 -c 2 -a 0 -i 2 -k AGT
+ -t 12.500000000 -s 0 -d -1 -p AODV -e 48 -c 2 -a 0 -i 0 -k RTR 
- -t 12.500000000 -s 0 -d -1 -p AODV -e 48 -c 2 -a 0 -i 0 -k RTR
h -t 12.500000000 -s 0 -d -1 -p AODV -e 48 -c 2 -a 0 -i 0 -k RTR
+ -t 12.500275000 -s 0 -d -1 -p AODV -e 106 -c 2 -a 0 -i 0 -k MAC 
- -t 12.500275000 -s 0 -d -1 -p AODV -e 106 -c 2 -a 0 -i 0 -k MAC
h -t 12.500275000 -s 0 -d -1 -p AODV -e 106 -c 2 -a 0 -i 0 -k MAC
r -t 12.501123584 -s 1 -d -1 -p AODV -e 48 -c 2 -a 0 -i 0 -k MAC
r -t 12.501148584 -s 1 -d -1 -p AODV -e 48 -c 2 -a 0 -i 0 -k RTR
+ -t 12.501148584 -s 1 -d 0 -p AODV -e 44 -c 2 -a 0 -i 0 -k RTR 
- -t 12.501148584 -s 1 -d 0 -p AODV -e 44 -c 2 -a 0 -i 0 -k RTR
h -t 12.501148584 -s 1 -d 0 -p AODV -e 44 -c 2 -a 0 -i 0 -k RTR
+ -t 12.501563584 -s 1 -d -1 -p ARP -e 86 -c 2 -a 0 -i 0 -k MAC 
- -t 12.501563584 -s 1 -d -1 -p ARP -e 86 -c 2 -a 0 -i 0 -k MAC
h -t 12.501563584 -s 1 -d -1 -p ARP -e 86 -c 2 -a 0 -i 0 -k MAC
r -t 12.502252167 -s 0 -d -1 -p ARP -e 28 -c 2 -a 0 -i 0 -k MAC
+ -t 12.502547167 -s 0 -d -1 -p RTS -e 44 -c 2 -a 0 -i 0 -k MAC 
- -t 12.502547167 -s 0 -d -1 -p RTS -e 44 -c 2 -a 0 -i 0 -k MAC
h -t 12.502547167 -s 0 -d -1 -p RTS -e 44 -c 2 -a 0 -i 0 -k MAC
r -t 12.502899751 -s 1 -d -1 -p RTS -e 44 -c 2 -a 0 -i 0 -k MAC
+ -t 12.502909751 -s 1 -d -1 -p CTS -e 38 -c 2 -a 0 -i 0 -k MAC 
- -t 12.502909751 -s 1 -d -1 -p CTS -e 38 -c 2 -a 0 -i 0 -k MAC
h -t 12.502909751 -s 1 -d -1 -p CTS -e 38 -c 2 -a 0 -i 0 -k MAC
r -t 12.503214334 -s 0 -d -1 -p CTS -e 38 -c 2 -a 0 -i 0 -k MAC
+ -t 12.503224334 -s 0 -d -1 -p ARP -e 86 -c 2 -a 0 -i 0 -k MAC 
- -t 12.503224334 -s 0 -d -1 -p ARP -e 86 -c 2 -a 0 -i 0 -k MAC
h -t 12.503224334 -s 0 -d -1 -p ARP -e 86 -c 2 -a 0 -i 0 -k MAC
r -t 12.503912917 -s 1 -d -1 -p ARP -e 28 -c 2 -a 0 -i 0 -k MAC
+ -t 12.503922917 -s 1 -d -1 -p ACK -e 38 -c 2 -a 0 -i 0 -k MAC 
- -t 12.503922917 -s 1 -d -1 -p ACK -e 38 -c 2 -a 0 -i 0 -k MAC
h -t 12.503922917 -s 1 -d -1 -p ACK -e 38 -c 2 -a 0 -i 0 -k MAC
r -t 12.504227501 -s 0 -d -1 -p ACK -e 38 -c 2 -a 0 -i 0 -k MAC
+ -t 12.504296917 -s 1 -d -1 -p RTS -e 44 -c 2 -a 0 -i 0 -k MAC 
- -t 12.504296917 -s 1 -d -1 -p RTS -e 44 -c 2 -a 0 -i 0 -k MAC
h -t 12.504296917 -s 1 -d -1 -p RTS -e 44 -c 2 -a 0 -i 0 -k MAC
r -t 12.504649501 -s 0 -d -1 -p RTS -e 44 -c 2 -a 0 -i 0 -k MAC
+ -t 12.504659501 -s 0 -d -1 -p CTS -e 38 -c 2 -a 0 -i 0 -k MAC 
- -t 12.504659501 -s 0 -d -1 -p CTS -e 38 -c 2 -a 0 -i 0 -k MAC
h -t 12.504659501 -s 0 -d -1 -p CTS -e 38 -c 2 -a 0 -i 0 -k MAC
r -t 12.504964084 -s 1 -d -1 -p CTS -e 38 -c 2 -a 0 -i 0 -k MAC
+ -t 12.504974084 -s 1 -d 0 -p AODV -e 102 -c 2 -a 0 -i 0 -k MAC 
- -t 12.504974084 -s 1 -d 0 -p AODV -e 102 -c 2 -a 0 -i 0 -k MAC
h -t 12.504974084 -s 1 -d 0 -p AODV -e 102 -c 2 -a 0 -i 0 -k MAC
r -t 12.505790667 -s 0 -d 0 -p AODV -e 44 -c 2 -a 0 -i 0 -k MAC
+ -t 12.505800667 -s 0 -d -1 -p ACK -e 38 -c 2 -a 0 -i 0 -k MAC 
- -t 12.505800667 -s 0 -d -1 -p ACK -e 38 -c 2 -a 0 -i 0 -k MAC
h -t 12.505800667 -s 0 -d -1 -p ACK -e 38 -c 2 -a 0 -i 0 -k MAC
+ -t 12.505815667 -s 0 -d 1 -p tcp -e 40 -c 2 -a 0 -i 0 -k RTR 
- -t 12.505815667 -s 0 -d 1 -p tcp -e 40 -c 2 -a 0 -i 0 -k RTR
h -t 12.505815667 -s 0 -d 1 -p tcp -e 40 -c 2 -a 0 -i 0 -k RTR
r -t 12.506105250 -s 1 -d -1 -p ACK -e 38 -c 2 -a 0 -i 0 -k MAC
+ -t 12.506194667 -s 0 -d -1 -p RTS -e 44 -c 2 -a 0 -i 0 -k MAC 
- -t 12.506194667 -s 0 -d -1 -p RTS -e 44 -c 2 -a 0 -i 0 -k MAC
h -t 12.506194667 -s 0 -d -1 -p RTS -e 44 -c 2 -a 0 -i 0 -k MAC
r -t 12.506547250 -s 1 -d -1 -p RTS -e 44 -c 2 -a 0 -i 0 -k MAC
+ -t 12.506557250 -s 1 -d -1 -p CTS -e 38 -c 2 -a 0 -i 0 -k MAC 
- -t 12.506557250 -s 1 -d -1 -p CTS -e 38 -c 2 -a 0 -i 0 -k MAC
h -t 12.506557250 -s 1 -d -1 -p CTS -e 38 -c 2 -a 0 -i 0 -k MAC
r -t 12.506861833 -s 0 -d -1 -p CTS -e 38 -c 2 -a 0 -i 0 -k MAC
+ -t 12.506871833 -s 0 -d 1 -p tcp -e 98 -c 2 -a 0 -i 0 -k MAC 
- -t 12.506871833 -s 0 -d 1 -p tcp -e 98 -c 2 -a 0 -i 0 -k MAC
h -t 12.506871833 -s 0 -d 1 -p tcp -e 98 -c 2 -a 0 -i 0 -k MAC
r -t 12.507656416 -s 1 -d 1 -p tcp -e 40 -c 2 -a 0 -i 0 -k MAC
+ -t 12.507666416 -s 1 -d -1 -p ACK -e 38 -c 2 -a 0 -i 0 -k MAC 
- -t 12.507666416 -s 1 -d -1 -p ACK -e 38 -c 2 -a 0 -i 0 -k MAC
h -t 12.507666416 -s 1 -d -1 -p ACK -e 38 -c 2 -a 0 -i 0 -k MAC
r -t 12.507681416 -s 1 -d 1 -p tcp -e 40 -c 2 -a 0 -i 0 -k AGT
+ -t 12.507681416 -s 1 -d -1 -p ack -e 40 -c 2 -a 0 -i 3 -k AGT 
- -t 12.507681416 -s 1 -d -1 -p ack -e 40 -c 2 -a 0 -i 3 -k AGT
h -t 12.507681416 -s 1 -d -1 -p ack -e 40 -c 2 -a 0 -i 3 -k AGT
+ -t 12.507681416 -s 1 -d 0 -p ack -e 40 -c 2 -a 0 -i 3 -k RTR 
- -t 12.507681416 -s 1 -d 0 -p ack -e 40 -c 2 -a 0 -i 3 -k RTR
h -t 12.507681416 -s 1 -d 0 -p ack -e 40 -c 2 -a 0 -i 3 -k RTR
r -t 12.507970999 -s 0 -d -1 -p ACK -e 38 -c 2 -a 0 -i 0 -k MAC
+ -t 12.508540416 -s 1 -d -1 -p RTS -e 44 -c 2 -a 0 -i 0 -k MAC 
- -t 12.508540416 -s 1 -d -1 -p RTS -e 44 -c 2 -a 0 -i 0 -k MAC
h -t 12.508540416 -s 1 -d -1 -p RTS -e 44 -c 2 -a 0 -i 0 -k MAC
r -t 12.508892999 -s 0 -d -1 -p RTS -e 44 -c 2 -a 0 -i 0 -k MAC
+ -t 12.508902999 -s 0 -d -1 -p CTS -e 38 -c 2 -a 0 -i 0 -k MAC 
- -t 12.508902999 -s 0 -d -1 -p CTS -e 38 -c 2 -a 0 -i 0 -k MAC
h -t 12.508902999 -s 0 -d -1 -p CTS -e 38 -c 2 -a 0 -i 0 -k MAC
r -t 12.509207582 -s 1 -d -1 -p CTS -e 38 -c 2 -a 0 -i 0 -k MAC
+ -t 12.509217582 -s 1 -d 0 -p ack -e 98 -c 2 -a 0 -i 3 -k MAC 
- -t 12.509217582 -s 1 -d 0 -p ack -e 98 -c 2 -a 0 -i 3 -k MAC
h -t 12.509217582 -s 1 -d 0 -p ack -e 98 -c 2 -a 0 -i 3 -k MAC
r -t 12.510002164 -s 0 -d 0 -p ack -e 40 -c 2 -a 0 -i 3 -k MAC
+ -t 12.510012164 -s 0 -d -1 -p ACK -e 38 -c 2 -a 0 -i 0 -k MAC 
- -t 12.510012164 -s 0 -d -1 -p ACK -e 38 -c 2 -a 0 -i 0 -k MAC
h -t 12.510012164 -s 0 -d -1 -p ACK -e 38 -c 2 -a 0 -i 0 -k MAC
r -t 12.510027164 -s 0 -d 0 -p ack -e 40 -c 2 -a 0 -i 3 -k AGT
+ -t 12.510027164 -s 0 -d -1 -p tcp -e 1040 -c 2 -a 0 -i 4 -k AGT 
- -t 12.510027164 -s 0 -d -1 -p tcp -e 1040 -c 2 -a 0 -i 4 -k AGT
h -t 12.510027164 -s 0 -d -1 -p tcp -e 1040 -c 2 -a 0 -i 4 -k AGT
+ -t 12.510027164 -s 0 -d 1 -p tcp -e 1040 -c 2 -a 0 -i 4 -k RTR 
- -t 12.510027164 -s 0 -d 1 -p tcp -e 1040 -c 2 -a 0 -i 4 -k RTR
h -t 12.510027164 -s 0 -d 1 -p tcp -e 1040 -c 2 -a 0 -i 4 -k RTR
r -t 12.510316747 -s 1 -d -1 -p ACK -e 38 -c 2 -a 0 -i 0 -k MAC
+ -t 12.510726164 -s 0 -d -1 -p RTS -e 44 -c 2 -a 0 -i 0 -k MAC 
- -t 12.510726164 -s 0 -d -1 -p RTS -e 44 -c 2 -a 0 -i 0 -k MAC
h -t 12.510726164 -s 0 -d -1 -p RTS -e 44 -c 2 -a 0 -i 0 -k MAC
r -t 12.511078747 -s 1 -d -1 -p RTS -e 44 -c 2 -a 0 -i 0 -k MAC
+ -t 12.511088747 -s 1 -d -1 -p CTS -e 38 -c 2 -a 0 -i 0 -k MAC 
- -t 12.511088747 -s 1 -d -1 -p CTS -e 38 -c 2 -a 0 -i 0 -k MAC
h -t 12.511088747 -s 1 -d -1 -p CTS -e 38 -c 2 -a 0 -i 0 -k MAC
r -t 12.511393329 -s 0 -d -1 -p CTS -e 38 -c 2 -a 0 -i 0 -k MAC
+ -t 12.511403329 -s 0 -d 1 -p tcp -e 1098 -c 2 -a 0 -i 4 -k MAC 
- -t 12.511403329 -s 0 -d 1 -p tcp -e 1098 -c 2 -a 0 -i 4 -k MAC
h -t 12.511403329 -s 0 -d 1 -p tcp -e 1098 -c 2 -a 0 -i 4 -k MAC
+ -t 12.515815667 -s 0 -d 1 -p tcp -e 40 -c 2 -a 0 -i 1 -k RTR 
- -t 12.515815667 -s 0 -d 1 -p tcp -e 40 -c 2 -a 0 -i 1 -k RTR
h -t 12.515815667 -s 0 -d 1 -p tcp -e 40 -c 2 -a 0 -i 1 -k RTR
r -t 12.520187912 -s 1 -d 1 -p tcp -e 1040 -c 2 -a 0 -i 4 -k MAC
+ -t 12.520197912 -s 1 -d -1 -p ACK -e 38 -c 2 -a 0 -i 0 -k MAC 
- -t 12.520197912 -s 1 -d -1 -p ACK -e 38 -c 2 -a 0 -i 0 -k MAC
h -t 12.520197912 -s 1 -d -1 -p ACK -e 38 -c 2 -a 0 -i 0 -k MAC
r -t 12.520212912 -s 1 -d 1 -p tcp -e 1040 -c 2 -a 0 -i 4 -k AGT
+ -t 12.520212912 -s 1 -d -1 -p ack -e 40 -c 2 -a 0 -i 5 -k AGT 
- -t 12.520212912 -s 1 -d -1 -p ack -e 40 -c 2 -a 0 -i 5 -k AGT
h -t 12.520212912 -s 1 -d -1 -p ack -e 40 -c 2 -a 0 -i 5 -k AGT
+ -t 12.520212912 -s 1 -d 0 -p ack -e 40 -c 2 -a 0 -i 5 -k RTR 
- -t 12.520212912 -s 1 -d 0 -p ack -e 40 -c 2 -a 0 -i 5 -k RTR
h -t 12.520212912 -s 1 -d 0 -p ack -e 40 -c 2 -a 0 -i 5 -k RTR
r -t 12.520502494 -s 0 -d -1 -p ACK -e 38 -c 2 -a 0 -i 0 -k MAC
+ -t 12.520711912 -s 1 -d -1 -p RTS -e 44 -c 2 -a 0 -i 0 -k MAC 
- -t 12.520711912 -s 1 -d -1 -p RTS -e 44 -c 2 -a 0 -i 0 -k MAC
h -t 12.520711912 -s 1 -d -1 -p RTS -e 44 -c 2 -a 0 -i 0 -k MAC
r -t 12.521064494 -s 0 -d -1 -p RTS -e 44 -c 2 -a 0 -i 0 -k MAC
+ -t 12.521074494 -s 0 -d -1 -p CTS -e 38 -c 2 -a 0 -i 0 -k MAC 
- -t 12.521074494 -s 0 -d -1 -p CTS -e 38 -c 2 -a 0 -i 0 -k MAC
h -t 12.521074494 -s 0 -d -1 -p CTS -e 38 -c 2 -a 0 -i 0 -k MAC
r -t 12.521379075 -s 1 -d -1 -p CTS -e 38 -c 2 -a 0 -i 0 -k MAC
+ -t 12.521389075 -s 1 -d 0 -p ack -e 98 -c 2 -a 0 -i 5 -k MAC 
- -t 12.521389075 -s 1 -d 0 -p ack -e 98 -c 2 -a 0 -i 5 -k MAC
h -t 12.521389075 -s 1 -d 0 -p ack -e 98 -c 2 -a 0 -i 5 -k MAC
r -t 12.522173657 -s 0 -d 0 -p ack -e 40 -c 2 -a 0 -i 5 -k MAC
+ -t 12.522183657 -s 0 -d -1 -p ACK -e 38 -c 2 -a 0 -i 0 -k MAC 
- -t 12.522183657 -s 0 -d -1 -p ACK -e 38 -c 2 -a 0 -i 0 -k MAC
h -t 12.522183657 -s 0 -d -1 -p ACK -e 38 -c 2 -a 0 -i 0 -k MAC
r -t 12.522198657 -s 0 -d 0 -p ack -e 40 -c 2 -a 0 -i 5 -k AGT
+ -t 12.522198657 -s 0 -d -1 -p tcp -e 1040 -c 2 -a 0 -i 6 -k AGT 
- -t 12.522198657 -s 0 -d -1 -p tcp -e 1040 -c 2 -a 0 -i 6 -k AGT
h -t 12.522198657 -s 0 -d -1 -p tcp -e 1040 -c 2 -a 0 -i 6 -k AGT
+ -t 12.522198657 -s 0 -d -1 -p tcp -e 1040 -c 2 -a 0 -i 7 -k AGT 
- -t 12.522198657 -s 0 -d -1 -p tcp -e 1040 -c 2 -a 0 -i 7 -k AGT
h -t 12.522198657 -s 0 -d -1 -p tcp -e 1040 -c 2 -a 0 -i 7 -k AGT
+ -t 12.522198657 -s 0 -d 1 -p tcp -e 1040 -c 2 -a 0 -i 6 -k RTR 
- -t 12.522198657 -s 0 -d 1 -p tcp -e 1040 -c 2 -a 0 -i 6 -k RTR
h -t 12.522198657 -s 0 -d 1 -p tcp -e 1040 -c 2 -a 0 -i 6 -k RTR
+ -t 12.522198657 -s 0 -d 1 -p tcp -e 1040 -c 2 -a 0 -i 7 -k RTR 
- -t 12.522198657 -s 0 -d 1 -p tcp -e 1040 -c 2 -a 0 -i 7 -k RTR
h -t 12.522198657 -s 0 -d 1 -p tcp -e 1040 -c 2 -a 0 -i 7 -k RTR
r -t 12.522488238 -s 1 -d -1 -p ACK -e 38 -c 2 -a 0 -i 0 -k MAC
+ -t 12.522877657 -s 0 -d -1 -p RTS -e 44 -c 2 -a 0 -i 0 -k MAC 
- -t 12.522877657 -s 0 -d -1 -p RTS -e 44 -c 2 -a 0 -i 0 -k MAC
h -t 12.522877657 -s 0 -d -1 -p RTS -e 44 -c 2 -a 0 -i 0 -k MAC
r -t 12.523230238 -s 1 -d -1 -p RTS -e 44 -c 2 -a 0 -i 0 -k MAC
+ -t 12.523240238 -s 1 -d -1 -p CTS -e 38 -c 2 -a 0 -i 0 -k MAC 
- -t 12.523240238 -s 1 -d -1 -p CTS -e 38 -c 2 -a 0 -i 0 -k MAC
h -t 12.523240238 -s 1 -d -1 -p CTS -e 38 -c 2 -a 0 -i 0 -k MAC
r -t 12.523544820 -s 0 -d -1 -p CTS -e 38 -c 2 -a 0 -i 0 -k MAC
+ -t 12.523554820 -s 0 -d 1 -p tcp -e 98 -c 2 -a 0 -i 1 -k MAC 
- -t 12.523554820 -s 0 -d 1 -p tcp -e 98 -c 2 -a 0 -i 1 -k MAC
h -t 12.523554820 -s 0 -d 1 -p tcp -e 98 -c 2 -a 0 -i 1 -k MAC
r -t 12.524339401 -s 1 -d 1 -p tcp -e 40 -c 2 -a 0 -i 1 -k MAC
+ -t 12.524349401 -s 1 -d -1 -p ACK -e 38 -c 2 -a 0 -i 0 -k MAC 
- -t 12.524349401 -s 1 -d -1 -p ACK -e 38 -c 2 -a 0 -i 0 -k MAC
h -t 12.524349401 -s 1 -d -1 -p ACK -e 38 -c 2 -a 0 -i 0 -k MAC
r -t 12.524364401 -s 1 -d 1 -p tcp -e 40 -c 2 -a 0 -i 1 -k AGT
+ -t 12.524364401 -s 1 -d -1 -p ack -e 40 -c 2 -a 0 -i 8 -k AGT 
- -t 12.524364401 -s 1 -d -1 -p ack -e 40 -c 2 -a 0 -i 8 -k AGT
h -t 12.524364401 -s 1 -d -1 -p ack -e 40 -c 2 -a 0 -i 8 -k AGT
+ -t 12.524364401 -s 1 -d 0 -p ack -e 40 -c 2 -a 0 -i 8 -k RTR 
- -t 12.524364401 -s 1 -d 0 -p ack -e 40 -c 2 -a 0 -i 8 -k RTR
h -t 12.524364401 -s 1 -d 0 -p ack -e 40 -c 2 -a 0 -i 8 -k RTR
r -t 12.524653982 -s 0 -d -1 -p ACK -e 38 -c 2 -a 0 -i 0 -k MAC
+ -t 12.524723401 -s 1 -d -1 -p RTS -e 44 -c 2 -a 0 -i 0 -k MAC 
- -t 12.524723401 -s 1 -d -1 -p RTS -e 44 -c 2 -a 0 -i 0 -k MAC
h -t 12.524723401 -s 1 -d -1 -p RTS -e 44 -c 2 -a 0 -i 0 -k MAC
r -t 12.525075982 -s 0 -d -1 -p RTS -e 44 -c 2 -a 0 -i 0 -k MAC
+ -t 12.525085982 -s 0 -d -1 -p CTS -e 38 -c 2 -a 0 -i 0 -k MAC 
- -t 12.525085982 -s 0 -d -1 -p CTS -e 38 -c 2 -a 0 -i 0 -k MAC
h -t 12.525085982 -s 0 -d -1 -p CTS -e 38 -c 2 -a 0 -i 0 -k MAC
r -t 12.525390563 -s 1 -d -1 -p CTS -e 38 -c 2 -a 0 -i 0 -k MAC
+ -t 12.525400563 -s 1 -d 0 -p ack -e 98 -c 2 -a 0 -i 8 -k MAC 
- -t 12.525400563 -s 1 -d 0 -p ack -e 98 -c 2 -a 0 -i 8 -k MAC
h -t 12.525400563 -s 1 -d 0 -p ack -e 98 -c 2 -a 0 -i 8 -k MAC
+ -t 12.525815667 -s 0 -d 1 -p tcp -e 40 -c 2 -a 0 -i 2 -k RTR 
- -t 12.525815667 -s 0 -d 1 -p tcp -e 40 -c 2 -a 0 -i 2 -k RTR
h -t 12.525815667 -s 0 -d 1 -p tcp -e 40 -c 2 -a 0 -i 2 -k RTR
r -t 12.526185144 -s 0 -d 0 -p ack -e 40 -c 2 -a 0 -i 8 -k MAC
+ -t 12.526195144 -s 0 -d -1 -p ACK -e 38 -c 2 -a 0 -i 0 -k MAC 
- -t 12.526195144 -s 0 -d -1 -p ACK -e 38 -c 2 -a 0 -i 0 -k MAC
h -t 12.526195144 -s 0 -d -1 -p ACK -e 38 -c 2 -a 0 -i 0 -k MAC
r -t 12.526210144 -s 0 -d 0 -p ack -e 40 -c 2 -a 0 -i 8 -k AGT
+ -t 12.526210144 -s 0 -d -1 -p tcp -e 1040 -c 2 -a 0 -i 9 -k AGT 
- -t 12.526210144 -s 0 -d -1 -p tcp -e 1040 -c 2 -a 0 -i 9 -k AGT
h -t 12.526210144 -s 0 -d -1 -p tcp -e 1040 -c 2 -a 0 -i 9 -k AGT
+ -t 12.526210144 -s 0 -d 1 -p tcp -e 1040 -c 2 -a 0 -i 9 -k RTR 
- -t 12.526210144 -s 0 -d 1 -p tcp -e 1040 -c 2 -a 0 -i 9 -k RTR
h -t 12.526210144 -s 0 -d 1 -p tcp -e 1040 -c 2 -a 0 -i 9 -k RTR
r -t 12.526499726 -s 1 -d -1 -p ACK -e 38 -c 2 -a 0 -i 0 -k MAC
+ -t 12.526869144 -s 0 -d -1 -p RTS -e 44 -c 2 -a 0 -i 0 -k MAC 
- -t 12.526869144 -s 0 -d -1 -p RTS -e 44 -c 2 -a 0 -i 0 -k MAC
h -t 12.526869144 -s 0 -d -1 -p RTS -e 44 -c 2 -a 0 -i 0 -k MAC
r -t 12.527221725 -s 1 -d -1 -p RTS -e 44 -c 2 -a 0 -i 0 -k MAC
+ -t 12.527231725 -s 1 -d -1 -p CTS -e 38 -c 2 -a 0 -i 0 -k MAC 
- -t 12.527231725 -s 1 -d -1 -p CTS -e 38 -c 2 -a 0 -i 0 -k MAC
h -t 12.527231725 -s 1 -d -1 -p CTS -e 38 -c 2 -a 0 -i 0 -k MAC
r -t 12.527536306 -s 0 -d -1 -p CTS -e 38 -c 2 -a 0 -i 0 -k MAC
+ -t 12.527546306 -s 0 -d 1 -p tcp -e 1098 -c 2 -a 0 -i 6 -k MAC 
- -t 12.527546306 -s 0 -d 1 -p tcp -e 1098 -c 2 -a 0 -i 6 -k MAC
h -t 12.527546306 -s 0 -d 1 -p tcp -e 1098 -c 2 -a 0 -i 6 -k MAC
r -t 12.536330887 -s 1 -d 1 -p tcp -e 1040 -c 2 -a 0 -i 6 -k MAC
+ -t 12.536340887 -s 1 -d -1 -p ACK -e 38 -c 2 -a 0 -i 0 -k MAC 
- -t 12.536340887 -s 1 -d -1 -p ACK -e 38 -c 2 -a 0 -i 0 -k MAC
h -t 12.536340887 -s 1 -d -1 -p ACK -e 38 -c 2 -a 0 -i 0 -k MAC
r -t 12.536355887 -s 1 -d 1 -p tcp -e 1040 -c 2 -a 0 -i 6 -k AGT
+ -t 12.536355887 -s 1 -d -1 -p ack -e 40 -c 2 -a 0 -i 10 -k AGT 
- -t 12.536355887 -s 1 -d -1 -p ack -e 40 -c 2 -a 0 -i 10 -k AGT
h -t 12.536355887 -s 1 -d -1 -p ack -e 40 -c 2 -a 0 -i 10 -k AGT
+ -t 12.536355887 -s 1 -d 0 -p ack -e 40 -c 2 -a 0 -i 10 -k RTR 
- -t 12.536355887 -s 1 -d 0 -p ack -e 40 -c 2 -a 0 -i 10 -k RTR
h -t 12.536355887 -s 1 -d 0 -p ack -e 40 -c 2 -a 0 -i 10 -k RTR
r -t 12.536645467 -s 0 -d -1 -p ACK -e 38 -c 2 -a 0 -i 0 -k MAC
+ -t 12.536715467 -s 0 -d -1 -p RTS -e 44 -c 2 -a 0 -i 0 -k MAC 
- -t 12.536715467 -s 0 -d -1 -p RTS -e 44 -c 2 -a 0 -i 0 -k MAC
h -t 12.536715467 -s 0 -d -1 -p RTS -e 44 -c 2 -a 0 -i 0 -k MAC
r -t 12.537068047 -s 1 -d -1 -p RTS -e 44 -c 2 -a 0 -i 0 -k MAC
+ -t 12.537078047 -s 1 -d -1 -p CTS -e 38 -c 2 -a 0 -i 0 -k MAC 
- -t 12.537078047 -s 1 -d -1 -p CTS -e 38 -c 2 -a 0 -i 0 -k MAC
h -t 12.537078047 -s 1 -d -1 -p CTS -e 38 -c 2 -a 0 -i 0 -k MAC
r -t 12.537382627 -s 0 -d -1 -p CTS -e 38 -c 2 -a 0 -i 0 -k MAC
+ -t 12.537392627 -s 0 -d 1 -p tcp -e 1098 -c 2 -a 0 -i 7 -k MAC 
- -t 12.537392627 -s 0 -d 1 -p tcp -e 1098 -c 2 -a 0 -i 7 -k MAC
h -t 12.537392627 -s 0 -d 1 -p tcp -e 1098 -c 2 -a 0 -i 7 -k MAC
r -t 12.546177207 -s 1 -d 1 -p tcp -e 1040 -c 2 -a 0 -i 7 -k MAC
+ -t 12.546187207 -s 1 -d -1 -p ACK -e 38 -c 2 -a 0 -i 0 -k MAC 
- -t 12.546187207 -s 1 -d -1 -p ACK -e 38 -c 2 -a 0 -i 0 -k MAC
h -t 12.546187207 -s 1 -d -1 -p ACK -e 38 -c 2 -a 0 -i 0 -k MAC
r -t 12.546202207 -s 1 -d 1 -p tcp -e 1040 -c 2 -a 0 -i 7 -k AGT
+ -t 12.546202207 -s 1 -d -1 -p ack -e 40 -c 2 -a 0 -i 11 -k AGT 
- -t 12.546202207 -s 1 -d -1 -p ack -e 40 -c 2 -a 0 -i 11 -k AGT
h -t 12.546202207 -s 1 -d -1 -p ack -e 40 -c 2 -a 0 -i 11 -k AGT
+ -t 12.546202207 -s 1 -d 0 -p ack -e 40 -c 2 -a 0 -i 11 -k RTR 
- -t 12.546202207 -s 1 -d 0 -p ack -e 40 -c 2 -a 0 -i 11 -k RTR
h -t 12.546202207 -s 1 -d 0 -p ack -e 40 -c 2 -a 0 -i 11 -k RTR
r -t 12.546491787 -s 0 -d -1 -p ACK -e 38 -c 2 -a 0 -i 0 -k MAC
+ -t 12.546741207 -s 1 -d -1 -p RTS -e 44 -c 2 -a 0 -i 0 -k MAC 
- -t 12.546741207 -s 1 -d -1 -p RTS -e 44 -c 2 -a 0 -i 0 -k MAC
h -t 12.546741207 -s 1 -d -1 -p RTS -e 44 -c 2 -a 0 -i 0 -k MAC
r -t 12.547093787 -s 0 -d -1 -p RTS -e 44 -c 2 -a 0 -i 0 -k MAC
+ -t 12.547103787 -s 0 -d -1 -p CTS -e 38 -c 2 -a 0 -i 0 -k MAC 
- -t 12.547103787 -s 0 -d -1 -p CTS -e 38 -c 2 -a 0 -i 0 -k MAC
h -t 12.547103787 -s 0 -d -1 -p CTS -e 38 -c 2 -a 0 -i 0 -k MAC
r -t 12.547408366 -s 1 -d -1 -p CTS -e 38 -c 2 -a 0 -i 0 -k MAC
+ -t 12.547418366 -s 1 -d 0 -p ack -e 98 -c 2 -a 0 -i 10 -k MAC 
- -t 12.547418366 -s 1 -d 0 -p ack -e 98 -c 2 -a 0 -i 10 -k MAC
h -t 12.547418366 -s 1 -d 0 -p ack -e 98 -c 2 -a 0 -i 10 -k MAC
r -t 12.548202945 -s 0 -d 0 -p ack -e 40 -c 2 -a 0 -i 10 -k MAC
+ -t 12.548212945 -s 0 -d -1 -p ACK -e 38 -c 2 -a 0 -i 0 -k MAC 
- -t 12.548212945 -s 0 -d -1 -p ACK -e 38 -c 2 -a 0 -i 0 -k MAC
h -t 12.548212945 -s 0 -d -1 -p ACK -e 38 -c 2 -a 0 -i 0 -k MAC
r -t 12.548227945 -s 0 -d 0 -p ack -e 40 -c 2 -a 0 -i 10 -k AGT
r -t 12.548517523 -s 1 -d -1 -p ACK -e 38 -c 2 -a 0 -i 0 -k MAC
+ -t 12.548626945 -s 0 -d -1 -p RTS -e 44 -c 2 -a 0 -i 0 -k MAC 
- -t 12.548626945 -s 0 -d -1 -p RTS -e 44 -c 2 -a 0 -i 0 -k MAC
h -t 12.548626945 -s 0 -d -1 -p RTS -e 44 -c 2 -a 0 -i 0 -k MAC
r -t 12.548979523 -s 1 -d -1 -p RTS -e 44 -c 2 -a 0 -i 0 -k MAC
+ -t 12.548989523 -s 1 -d -1 -p CTS -e 38 -c 2 -a 0 -i 0 -k MAC 
- -t 12.548989523 -s 1 -d -1 -p CTS -e 38 -c 2 -a 0 -i 0 -k MAC
h -t 12.548989523 -s 1 -d -1 -p CTS -e 38 -c 2 -a 0 -i 0 -k MAC
r -t 12.549294102 -s 0 -d -1 -p CTS -e 38 -c 2 -a 0 -i 0 -k MAC
+ -t 12.549304102 -s 0 -d 1 -p tcp -e 98 -c 2 -a 0 -i 2 -k MAC 
- -t 12.549304102 -s 0 -d 1 -p tcp -e 98 -c 2 -a 0 -i 2 -k MAC
h -t 12.549304102 -s 0 -d 1 -p tcp -e 98 -c 2 -a 0 -i 2 -k MAC
r -t 12.550088681 -s 1 -d 1 -p tcp -e 40 -c 2 -a 0 -i 2 -k MAC
+ -t 12.550098681 -s 1 -d -1 -p ACK -e 38 -c 2 -a 0 -i 0 -k MAC 
- -t 12.550098681 -s 1 -d -1 -p ACK -e 38 -c 2 -a 0 -i 0 -k MAC
h -t 12.550098681 -s 1 -d -1 -p ACK -e 38 -c 2 -a 0 -i 0 -k MAC
r -t 12.550113681 -s 1 -d 1 -p tcp -e 40 -c 2 -a 0 -i 2 -k AGT
+ -t 12.550113681 -s 1 -d -1 -p ack -e 40 -c 2 -a 0 -i 12 -k AGT 
- -t 12.550113681 -s 1 -d -1 -p ack -e 40 -c 2 -a 0 -i 12 -k AGT
h -t 12.550113681 -s 1 -d -1 -p ack -e 40 -c 2 -a 0 -i 12 -k AGT
+ -t 12.550113681 -s 1 -d 0 -p ack -e 40 -c 2 -a 0 -i 12 -k RTR 
- -t 12.550113681 -s 1 -d 0 -p ack -e 40 -c 2 -a 0 -i 12 -k RTR
h -t 12.550113681 -s 1 -d 0 -p ack -e 40 -c 2 -a 0 -i 12 -k RTR
r -t 12.550403260 -s 0 -d -1 -p ACK -e 38 -c 2 -a 0 -i 0 -k MAC
+ -t 12.550633260 -s 0 -d -1 -p RTS -e 44 -c 2 -a 0 -i 0 -k MAC 
- -t 12.550633260 -s 0 -d -1 -p RTS -e 44 -c 2 -a 0 -i 0 -k MAC
h -t 12.550633260 -s 0 -d -1 -p RTS -e 44 -c 2 -a 0 -i 0 -k MAC
r -t 12.550985838 -s 1 -d -1 -p RTS -e 44 -c 2 -a 0 -i 0 -k MAC
+ -t 12.550995838 -s 1 -d -1 -p CTS -e 38 -c 2 -a 0 -i 0 -k MAC 
- -t 12.550995838 -s 1 -d -1 -p CTS -e 38 -c 2 -a 0 -i 0 -k MAC
h -t 12.550995838 -s 1 -d -1 -p CTS -e 38 -c 2 -a 0 -i 0 -k MAC
r -t 12.551300417 -s 0 -d -1 -p CTS -e 38 -c 2 -a 0 -i 0 -k MAC
+ -t 12.551310417 -s 0 -d 1 -p tcp -e 1098 -c 2 -a 0 -i 9 -k MAC 
- -t 12.551310417 -s 0 -d 1 -p tcp -e 1098 -c 2 -a 0 -i 9 -k MAC
h -t 12.551310417 -s 0 -d 1 -p tcp -e 1098 -c 2 -a 0 -i 9 -k MAC
r -t 12.560094996 -s 1 -d 1 -p tcp -e 1040 -c 2 -a 0 -i 9 -k MAC
+ -t 12.560104996 -s 1 -d -1 -p ACK -e 38 -c 2 -a 0 -i 0 -k MAC 
- -t 12.560104996 -s 1 -d -1 -p ACK -e 38 -c 2 -a 0 -i 0 -k MAC
h -t 12.560104996 -s 1 -d -1 -p ACK -e 38 -c 2 -a 0 -i 0 -k MAC
r -t 12.560119996 -s 1 -d 1 -p tcp -e 1040 -c 2 -a 0 -i 9 -k AGT
+ -t 12.560119996 -s 1 -d -1 -p ack -e 40 -c 2 -a 0 -i 13 -k AGT 
- -t 12.560119996 -s 1 -d -1 -p ack -e 40 -c 2 -a 0 -i 13 -k AGT
h -t 12.560119996 -s 1 -d -1 -p ack -e 40 -c 2 -a 0 -i 13 -k AGT
+ -t 12.560119996 -s 1 -d 0 -p ack -e 40 -c 2 -a 0 -i 13 -k RTR 
- -t 12.560119996 -s 1 -d 0 -p ack -e 40 -c 2 -a 0 -i 13 -k RTR
h -t 12.560119996 -s 1 -d 0 -p ack -e 40 -c 2 -a 0 -i 13 -k RTR
r -t 12.560409573 -s 0 -d -1 -p ACK -e 38 -c 2 -a 0 -i 0 -k MAC
+ -t 12.560678996 -s 1 -d -1 -p RTS -e 44 -c 2 -a 0 -i 0 -k MAC 
- -t 12.560678996 -s 1 -d -1 -p RTS -e 44 -c 2 -a 0 -i 0 -k MAC
h -t 12.560678996 -s 1 -d -1 -p RTS -e 44 -c 2 -a 0 -i 0 -k MAC
r -t 12.561031573 -s 0 -d -1 -p RTS -e 44 -c 2 -a 0 -i 0 -k MAC
+ -t 12.561041573 -s 0 -d -1 -p CTS -e 38 -c 2 -a 0 -i 0 -k MAC 
- -t 12.561041573 -s 0 -d -1 -p CTS -e 38 -c 2 -a 0 -i 0 -k MAC
h -t 12.561041573 -s 0 -d -1 -p CTS -e 38 -c 2 -a 0 -i 0 -k MAC
r -t 12.561346151 -s 1 -d -1 -p CTS -e 38 -c 2 -a 0 -i 0 -k MAC
+ -t 12.561356151 -s 1 -d 0 -p ack -e 98 -c 2 -a 0 -i 11 -k MAC 
- -t 12.561356151 -s 1 -d 0 -p ack -e 98 -c 2 -a 0 -i 11 -k MAC
h -t 12.561356151 -s 1 -d 0 -p ack -e 98 -c 2 -a 0 -i 11 -k MAC
r -t 12.562140729 -s 0 -d 0 -p ack -e 40 -c 2 -a 0 -i 11 -k MAC
+ -t 12.562150729 -s 0 -d -1 -p ACK -e 38 -c 2 -a 0 -i 0 -k MAC 
- -t 12.562150729 -s 0 -d -1 -p ACK -e 38 -c 2 -a 0 -i 0 -k MAC
h -t 12.562150729 -s 0 -d -1 -p ACK -e 38 -c 2 -a 0 -i 0 -k MAC
r -t 12.562165729 -s 0 -d 0 -p ack -e 40 -c 2 -a 0 -i 11 -k AGT
+ -t 12.562165729 -s 0 -d -1 -p tcp -e 1040 -c 2 -a 0 -i 14 -k AGT 
- -t 12.562165729 -s 0 -d -1 -p tcp -e 1040 -c 2 -a 0 -i 14 -k AGT
h -t 12.562165729 -s 0 -d -1 -p tcp -e 1040 -c 2 -a 0 -i 14 -k AGT
+ -t 12.562165729 -s 0 -d 1 -p tcp -e 1040 -c 2 -a 0 -i 14 -k RTR 
- -t 12.562165729 -s 0 -d 1 -p tcp -e 1040 -c 2 -a 0 -i 14 -k RTR
h -t 12.562165729 -s 0 -d 1 -p tcp -e 1040 -c 2 -a 0 -i 14 -k RTR
r -t 12.562455306 -s 1 -d -1 -p ACK -e 38 -c 2 -a 0 -i 0 -k MAC
+ -t 12.562884729 -s 0 -d -1 -p RTS -e 44 -c 2 -a 0 -i 0 -k MAC 
- -t 12.562884729 -s 0 -d -1 -p RTS -e 44 -c 2 -a 0 -i 0 -k MAC
h -t 12.562884729 -s 0 -d -1 -p RTS -e 44 -c 2 -a 0 -i 0 -k MAC
r -t 12.563237306 -s 1 -d -1 -p RTS -e 44 -c 2 -a 0 -i 0 -k MAC
+ -t 12.563247306 -s 1 -d -1 -p CTS -e 38 -c 2 -a 0 -i 0 -k MAC 
- -t 12.563247306 -s 1 -d -1 -p CTS -e 38 -c 2 -a 0 -i 0 -k MAC
h -t 12.563247306 -s 1 -d -1 -p CTS -e 38 -c 2 -a 0 -i 0 -k MAC
r -t 12.563551883 -s 0 -d -1 -p CTS -e 38 -c 2 -a 0 -i 0 -k MAC
+ -t 12.563561883 -s 0 -d 1 -p tcp -e 1098 -c 2 -a 0 -i 14 -k MAC 
- -t 12.563561883 -s 0 -d 1 -p tcp -e 1098 -c 2 -a 0 -i 14 -k MAC
h -t 12.563561883 -s 0 -d 1 -p tcp -e 1098 -c 2 -a 0 -i 14 -k MAC
r -t 12.572346461 -s 1 -d 1 -p tcp -e 1040 -c 2 -a 0 -i 14 -k MAC
+ -t 12.572356461 -s 1 -d -1 -p ACK -e 38 -c 2 -a 0 -i 0 -k MAC 
- -t 12.572356461 -s 1 -d -1 -p ACK -e 38 -c 2 -a 0 -i 0 -k MAC
h -t 12.572356461 -s 1 -d -1 -p ACK -e 38 -c 2 -a 0 -i 0 -k MAC
r -t 12.572371461 -s 1 -d 1 -p tcp -e 1040 -c 2 -a 0 -i 14 -k AGT
+ -t 12.572371461 -s 1 -d -1 -p ack -e 40 -c 2 -a 0 -i 15 -k AGT 
- -t 12.572371461 -s 1 -d -1 -p ack -e 40 -c 2 -a 0 -i 15 -k AGT
h -t 12.572371461 -s 1 -d -1 -p ack -e 40 -c 2 -a 0 -i 15 -k AGT
+ -t 12.572371461 -s 1 -d 0 -p ack -e 40 -c 2 -a 0 -i 15 -k RTR 
- -t 12.572371461 -s 1 -d 0 -p ack -e 40 -c 2 -a 0 -i 15 -k RTR
h -t 12.572371461 -s 1 -d 0 -p ack -e 40 -c 2 -a 0 -i 15 -k RTR
r -t 12.572661037 -s 0 -d -1 -p ACK -e 38 -c 2 -a 0 -i 0 -k MAC
+ -t 12.572750461 -s 1 -d -1 -p RTS -e 44 -c 2 -a 0 -i 0 -k MAC 
- -t 12.572750461 -s 1 -d -1 -p RTS -e 44 -c 2 -a 0 -i 0 -k MAC
h -t 12.572750461 -s 1 -d -1 -p RTS -e 44 -c 2 -a 0 -i 0 -k MAC
r -t 12.573103037 -s 0 -d -1 -p RTS -e 44 -c 2 -a 0 -i 0 -k MAC
+ -t 12.573113037 -s 0 -d -1 -p CTS -e 38 -c 2 -a 0 -i 0 -k MAC 
- -t 12.573113037 -s 0 -d -1 -p CTS -e 38 -c 2 -a 0 -i 0 -k MAC
h -t 12.573113037 -s 0 -d -1 -p CTS -e 38 -c 2 -a 0 -i 0 -k MAC
r -t 12.573417614 -s 1 -d -1 -p CTS -e 38 -c 2 -a 0 -i 0 -k MAC
+ -t 12.573427614 -s 1 -d 0 -p ack -e 98 -c 2 -a 0 -i 12 -k MAC 
- -t 12.573427614 -s 1 -d 0 -p ack -e 98 -c 2 -a 0 -i 12 -k MAC
h -t 12.573427614 -s 1 -d 0 -p ack -e 98 -c 2 -a 0 -i 12 -k MAC
r -t 12.574212190 -s 0 -d 0 -p ack -e 40 -c 2 -a 0 -i 12 -k MAC
+ -t 12.574222190 -s 0 -d -1 -p ACK -e 38 -c 2 -a 0 -i 0 -k MAC 
- -t 12.574222190 -s 0 -d -1 -p ACK -e 38 -c 2 -a 0 -i 0 -k MAC
h -t 12.574222190 -s 0 -d -1 -p ACK -e 38 -c 2 -a 0 -i 0 -k MAC
r -t 12.574237190 -s 0 -d 0 -p ack -e 40 -c 2 -a 0 -i 12 -k AGT
+ -t 12.574237190 -s 0 -d -1 -p tcp -e 1040 -c 2 -a 0 -i 16 -k AGT 
- -t 12.574237190 -s 0 -d -1 -p tcp -e 1040 -c 2 -a 0 -i 16 -k AGT
h -t 12.574237190 -s 0 -d -1 -p tcp -e 1040 -c 2 -a 0 -i 16 -k AGT
+ -t 12.574237190 -s 0 -d 1 -p tcp -e 1040 -c 2 -a 0 -i 16 -k RTR 
- -t 12.574237190 -s 0 -d 1 -p tcp -e 1040 -c 2 -a 0 -i 16 -k RTR
h -t 12.574237190 -s 0 -d 1 -p tcp -e 1040 -c 2 -a 0 -i 16 -k RTR
r -t 12.574526767 -s 1 -d -1 -p ACK -e 38 -c 2 -a 0 -i 0 -k MAC
+ -t 12.574936767 -s 1 -d -1 -p RTS -e 44 -c 2 -a 0 -i 0 -k MAC 
- -t 12.574936767 -s 1 -d -1 -p RTS -e 44 -c 2 -a 0 -i 0 -k MAC
h -t 12.574936767 -s 1 -d -1 -p RTS -e 44 -c 2 -a 0 -i 0 -k MAC
r -t 12.575289343 -s 0 -d -1 -p RTS -e 44 -c 2 -a 0 -i 0 -k MAC
+ -t 12.575299343 -s 0 -d -1 -p CTS -e 38 -c 2 -a 0 -i 0 -k MAC 
- -t 12.575299343 -s 0 -d -1 -p CTS -e 38 -c 2 -a 0 -i 0 -k MAC
h -t 12.575299343 -s 0 -d -1 -p CTS -e 38 -c 2 -a 0 -i 0 -k MAC
r -t 12.575603919 -s 1 -d -1 -p CTS -e 38 -c 2 -a 0 -i 0 -k MAC
+ -t 12.575613919 -s 1 -d 0 -p ack -e 98 -c 2 -a 0 -i 13 -k MAC 
- -t 12.575613919 -s 1 -d 0 -p ack -e 98 -c 2 -a 0 -i 13 -k MAC
h -t 12.575613919 -s 1 -d 0 -p ack -e 98 -c 2 -a 0 -i 13 -k MAC
r -t 12.576398495 -s 0 -d 0 -p ack -e 40 -c 2 -a 0 -i 13 -k MAC
+ -t 12.576408495 -s 0 -d -1 -p ACK -e 38 -c 2 -a 0 -i 0 -k MAC 
- -t 12.576408495 -s 0 -d -1 -p ACK -e 38 -c 2 -a 0 -i 0 -k MAC
h -t 12.576408495 -s 0 -d -1 -p ACK -e 38 -c 2 -a 0 -i 0 -k MAC
r -t 12.576423495 -s 0 -d 0 -p ack -e 40 -c 2 -a 0 -i 13 -k AGT
+ -t 12.576423495 -s 0 -d -1 -p tcp -e 1040 -c 2 -a 0 -i 17 -k AGT 
- -t 12.576423495 -s 0 -d -1 -p tcp -e 1040 -c 2 -a 0 -i 17 -k AGT
h -t 12.576423495 -s 0 -d -1 -p tcp -e 1040 -c 2 -a 0 -i 17 -k AGT
+ -t 12.576423495 -s 0 -d 1 -p tcp -e 1040 -c 2 -a 0 -i 17 -k RTR 
- -t 12.576423495 -s 0 -d 1 -p tcp -e 1040 -c 2 -a 0 -i 17 -k RTR
h -t 12.576423495 -s 0 -d 1 -p tcp -e 1040 -c 2 -a 0 -i 17 -k RTR
r -t 12.576713071 -s 1 -d -1 -p ACK -e 38 -c 2 -a 0 -i 0 -k MAC
+ -t 12.576803071 -s 1 -d -1 -p RTS -e 44 -c 2 -a 0 -i 0 -k MAC 
- -t 12.576803071 -s 1 -d -1 -p RTS -e 44 -c 2 -a 0 -i 0 -k MAC
h -t 12.576803071 -s 1 -d -1 -p RTS -e 44 -c 2 -a 0 -i 0 -k MAC
r -t 12.577155648 -s 0 -d -1 -p RTS -e 44 -c 2 -a 0 -i 0 -k MAC
+ -t 12.577165648 -s 0 -d -1 -p CTS -e 38 -c 2 -a 0 -i 0 -k MAC 
- -t 12.577165648 -s 0 -d -1 -p CTS -e 38 -c 2 -a 0 -i 0 -k MAC
h -t 12.577165648 -s 0 -d -1 -p CTS -e 38 -c 2 -a 0 -i 0 -k MAC
r -t 12.577470224 -s 1 -d -1 -p CTS -e 38 -c 2 -a 0 -i 0 -k MAC
+ -t 12.577480224 -s 1 -d 0 -p ack -e 98 -c 2 -a 0 -i 15 -k MAC 
- -t 12.577480224 -s 1 -d 0 -p ack -e 98 -c 2 -a 0 -i 15 -k MAC
h -t 12.577480224 -s 1 -d 0 -p ack -e 98 -c 2 -a 0 -i 15 -k MAC
r -t 12.578264800 -s 0 -d 0 -p ack -e 40 -c 2 -a 0 -i 15 -k MAC
+ -t 12.578274800 -s 0 -d -1 -p ACK -e 38 -c 2 -a 0 -i 0 -k MAC 
- -t 12.578274800 -s 0 -d -1 -p ACK -e 38 -c 2 -a 0 -i 0 -k MAC
h -t 12.578274800 -s 0 -d -1 -p ACK -e 38 -c 2 -a 0 -i 0 -k MAC
r -t 12.578289800 -s 0 -d 0 -p ack -e 40 -c 2 -a 0 -i 15 -k AGT
+ -t 12.578289800 -s 0 -d -1 -p tcp -e 1040 -c 2 -a 0 -i 18 -k AGT 
- -t 12.578289800 -s 0 -d -1 -p tcp -e 1040 -c 2 -a 0 -i 18 -k AGT
h -t 12.578289800 -s 0 -d -1 -p tcp -e 1040 -c 2 -a 0 -i 18 -k AGT
+ -t 12.578289800 -s 0 -d 1 -p tcp -e 1040 -c 2 -a 0 -i 18 -k RTR 
- -t 12.578289800 -s 0 -d 1 -p tcp -e 1040 -c 2 -a 0 -i 18 -k RTR
h -t 12.578289800 -s 0 -d 1 -p tcp -e 1040 -c 2 -a 0 -i 18 -k RTR
r -t 12.578579376 -s 1 -d -1 -p ACK -e 38 -c 2 -a 0 -i 0 -k MAC
+ -t 12.578748800 -s 0 -d -1 -p RTS -e 44 -c 2 -a 0 -i 0 -k MAC 
- -t 12.578748800 -s 0 -d -1 -p RTS -e 44 -c 2 -a 0 -i 0 -k MAC
h -t 12.578748800 -s 0 -d -1 -p RTS -e 44 -c 2 -a 0 -i 0 -k MAC
r -t 12.579101376 -s 1 -d -1 -p RTS -e 44 -c 2 -a 0 -i 0 -k MAC
+ -t 12.579111376 -s 1 -d -1 -p CTS -e 38 -c 2 -a 0 -i 0 -k MAC 
- -t 12.579111376 -s 1 -d -1 -p CTS -e 38 -c 2 -a 0 -i 0 -k MAC
h -t 12.579111376 -s 1 -d -1 -p CTS -e 38 -c 2 -a 0 -i 0 -k MAC