+ 1 0 1 tcp 40 ------- 0 0.0 3.0 0 0
- 1 0 1 tcp 40 ------- 0 0.0 3.0 0 0
r 1.00116 0 1 tcp 40 ------- 0 0.0 3.0 0 0
+ 1.00116 1 2 tcp 40 ------- 0 0.0 3.0 0 0
- 1.00116 1 2 tcp 40 ------- 0 0.0 3.0 0 0
r 1.00232 1 2 tcp 40 ------- 0 0.0 3.0 0 0
+ 1.00232 2 3 tcp 40 ------- 0 0.0 3.0 0 0
- 1.00232 2 3 tcp 40 ------- 0 0.0 3.0 0 0
r 1.00348 2 3 tcp 40 ------- 0 0.0 3.0 0 0
+ 1.00348 3 2 ack 40 ------- 0 3.0 0.0 0 1
- 1.00348 3 2 ack 40 ------- 0 3.0 0.0 0 1
r 1.00464 3 2 ack 40 ------- 0 3.0 0.0 0 1
+ 1.00464 2 1 ack 40 ------- 0 3.0 0.0 0 1
- 1.00464 2 1 ack 40 ------- 0 3.0 0.0 0 1
r 1.0058 2 1 ack 40 ------- 0 3.0 0.0 0 1
+ 1.0058 1 0 ack 40 ------- 0 3.0 0.0 0 1
- 1.0058 1 0 ack 40 ------- 0 3.0 0.0 0 1
r 1.00696 1 0 ack 40 ------- 0 3.0 0.0 0 1
+ 1.00696 0 1 tcp 1040 ------- 0 0.0 3.0 1 2
- 1.00696 0 1 tcp 1040 ------- 0 0.0 3.0 1 2
+ 1.00696 0 1 tcp 1040 ------- 0 0.0 3.0 2 3
- 1.01112 0 1 tcp 1040 ------- 0 0.0 3.0 2 3
r 1.01212 0 1 tcp 1040 ------- 0 0.0 3.0 1 2
+ 1.01212 1 2 tcp 1040 ------- 0 0.0 3.0 1 2
- 1.01212 1 2 tcp 1040 ------- 0 0.0 3.0 1 2
r 1.01628 0 1 tcp 1040 ------- 0 0.0 3.0 2 3
+ 1.01628 1 2 tcp 1040 ------- 0 0.0 3.0 2 3
- 1.01628 1 2 tcp 1040 ------- 0 0.0 3.0 2 3
r 1.01728 1 2 tcp 1040 ------- 0 0.0 3.0 1 2
+ 1.01728 2 3 tcp 1040 ------- 0 0.0 3.0 1 2
- 1.01728 2 3 tcp 1040 ------- 0 0.0 3.0 1 2
r 1.02144 1 2 tcp 1040 ------- 0 0.0 3.0 2 3
+ 1.02144 2 3 tcp 1040 ------- 0 0.0 3.0 2 3
- 1.02144 2 3 tcp 1040 ------- 0 0.0 3.0 2 3
r 1.02244 2 3 tcp 1040 ------- 0 0.0 3.0 1 2
+ 1.02244 3 2 ack 40 ------- 0 3.0 0.0 1 4
- 1.02244 3 2 ack 40 ------- 0 3.0 0.0 1 4
r 1.0236 3 2 ack 40 ------- 0 3.0 0.0 1 4
+ 1.0236 2 1 ack 40 ------- 0 3.0 0.0 1 4
- 1.0236 2 1 ack 40 ------- 0 3.0 0.0 1 4
r 1.02476 2 1 ack 40 ------- 0 3.0 0.0 1 4
+ 1.02476 1 0 ack 40 ------- 0 3.0 0.0 1 4
- 1.02476 1 0 ack 40 ------- 0 3.0 0.0 1 4
r 1.02592 1 0 ack 40 ------- 0 3.0 0.0 1 4
+ 1.02592 0 1 tcp 1040 ------- 0 0.0 3.0 3 5
- 1.02592 0 1 tcp 1040 ------- 0 0.0 3.0 3 5
+ 1.02592 0 1 tcp 1040 ------- 0 0.0 3.0 4 6
r 1.0266 2 3 tcp 1040 ------- 0 0.0 3.0 2 3
+ 1.0266 3 2 ack 40 ------- 0 3.0 0.0 2 7
- 1.0266 3 2 ack 40 ------- 0 3.0 0.0 2 7
r 1.02776 3 2 ack 40 ------- 0 3.0 0.0 2 7
+ 1.02776 2 1 ack 40 ------- 0 3.0 0.0 2 7
- 1.02776 2 1 ack 40 ------- 0 3.0 0.0 2 7
r 1.02892 2 1 ack 40 ------- 0 3.0 0.0 2 7
+ 1.02892 1 0 ack 40 ------- 0 3.0 0.0 2 7
- 1.02892 1 0 ack 40 ------- 0 3.0 0.0 2 7
- 1.03008 0 1 tcp 1040 ------- 0 0.0 3.0 4 6
r 1.03008 1 0 ack 40 ------- 0 3.0 0.0 2 7
+ 1.03008 0 1 tcp 1040 ------- 0 0.0 3.0 5 8
+ 1.03008 0 1 tcp 1040 ------- 0 0.0 3.0 6 9
r 1.03108 0 1 tcp 1040 ------- 0 0.0 3.0 3 5
+ 1.03108 1 2 tcp 1040 ------- 0 0.0 3.0 3 5
- 1.03108 1 2 tcp 1040 ------- 0 0.0 3.0 3 5
- 1.03424 0 1 tcp 1040 ------- 0 0.0 3.0 5 8
r 1.03524 0 1 tcp 1040 ------- 0 0.0 3.0 4 6
+ 1.03524 1 2 tcp 1040 ------- 0 0.0 3.0 4 6
- 1.03524 1 2 tcp 1040 ------- 0 0.0 3.0 4 6
r 1.03624 1 2 tcp 1040 ------- 0 0.0 3.0 3 5
+ 1.03624 2 3 tcp 1040 ------- 0 0.0 3.0 3 5
- 1.03624 2 3 tcp 1040 ------- 0 0.0 3.0 3 5
- 1.0384 0 1 tcp 1040 ------- 0 0.0 3.0 6 9
r 1.0394 0 1 tcp 1040 ------- 0 0.0 3.0 5 8
+ 1.0394 1 2 tcp 1040 ------- 0 0.0 3.0 5 8
- 1.0394 1 2 tcp 1040 ------- 0 0.0 3.0 5 8
r 1.0404 1 2 tcp 1040 ------- 0 0.0 3.0 4 6
+ 1.0404 2 3 tcp 1040 ------- 0 0.0 3.0 4 6
- 1.0404 2 3 tcp 1040 ------- 0 0.0 3.0 4 6
r 1.0414 2 3 tcp 1040 ------- 0 0.0 3.0 3 5
+ 1.0414 3 2 ack 40 ------- 0 3.0 0.0 3 10
- 1.0414 3 2 ack 40 ------- 0 3.0 0.0 3 10
r 1.04256 3 2 ack 40 ------- 0 3.0 0.0 3 10
+ 1.04256 2 1 ack 40 ------- 0 3.0 0.0 3 10
- 1.04256 2 1 ack 40 ------- 0 3.0 0.0 3 10
r 1.04356 0 1 tcp 1040 ------- 0 0.0 3.0 6 9
+ 1.04356 1 2 tcp 1040 ------- 0 0.0 3.0 6 9
- 1.04356 1 2 tcp 1040 ------- 0 0.0 3.0 6 9
r 1.04372 2 1 ack 40 ------- 0 3.0 0.0 3 10
+ 1.04372 1 0 ack 40 ------- 0 3.0 0.0 3 10
- 1.04372 1 0 ack 40 ------- 0 3.0 0.0 3 10
r 1.04456 1 2 tcp 1040 ------- 0 0.0 3.0 5 8
+ 1.04456 2 3 tcp 1040 ------- 0 0.0 3.0 5 8
- 1.04456 2 3 tcp 1040 ------- 0 0.0 3.0 5 8
r 1.04488 1 0 ack 40 ------- 0 3.0 0.0 3 10
+ 1.04488 0 1 tcp 1040 ------- 0 0.0 3.0 7 11
- 1.04488 0 1 tcp 1040 ------- 0 0.0 3.0 7 11
+ 1.04488 0 1 tcp 1040 ------- 0 0.0 3.0 8 12
r 1.04556 2 3 tcp 1040 ------- 0 0.0 3.0 4 6
+ 1.04556 3 2 ack 40 ------- 0 3.0 0.0 4 13
- 1.04556 3 2 ack 40 ------- 0 3.0 0.0 4 13
r 1.04672 3 2 ack 40 ------- 0 3.0 0.0 4 13
+ 1.04672 2 1 ack 40 ------- 0 3.0 0.0 4 13
- 1.04672 2 1 ack 40 ------- 0 3.0 0.0 4 13
r 1.04788 2 1 ack 40 ------- 0 3.0 0.0 4 13
+ 1.04788 1 0 ack 40 ------- 0 3.0 0.0 4 13
- 1.04788 1 0 ack 40 ------- 0 3.0 0.0 4 13
r 1.04872 1 2 tcp 1040 ------- 0 0.0 3.0 6 9
+ 1.04872 2 3 tcp 1040 ------- 0 0.0 3.0 6 9
- 1.04872 2 3 tcp 1040 ------- 0 0.0 3.0 6 9
- 1.04904 0 1 tcp 1040 ------- 0 0.0 3.0 8 12
r 1.04904 1 0 ack 40 ------- 0 3.0 0.0 4 13
+ 1.04904 0 1 tcp 1040 ------- 0 0.0 3.0 9 14
+ 1.04904 0 1 tcp 1040 ------- 0 0.0 3.0 10 15
r 1.04972 2 3 tcp 1040 ------- 0 0.0 3.0 5 8
+ 1.04972 3 2 ack 40 ------- 0 3.0 0.0 5 16
- 1.04972 3 2 ack 40 ------- 0 3.0 0.0 5 16
r 1.05004 0 1 tcp 1040 ------- 0 0.0 3.0 7 11
+ 1.05004 1 2 tcp 1040 ------- 0 0.0 3.0 7 11
- 1.05004 1 2 tcp 1040 ------- 0 0.0 3.0 7 11
r 1.05088 3 2 ack 40 ------- 0 3.0 0.0 5 16
+ 1.05088 2 1 ack 40 ------- 0 3.0 0.0 5 16
- 1.05088 2 1 ack 40 ------- 0 3.0 0.0 5 16
r 1.05204 2 1 ack 40 ------- 0 3.0 0.0 5 16
+ 1.05204 1 0 ack 40 ------- 0 3.0 0.0 5 16
- 1.05204 1 0 ack 40 ------- 0 3.0 0.0 5 16
- 1.0532 0 1 tcp 1040 ------- 0 0.0 3.0 9 14
r 1.0532 1 0 ack 40 ------- 0 3.0 0.0 5 16
+ 1.0532 0 1 tcp 1040 ------- 0 0.0 3.0 11 17
+ 1.0532 0 1 tcp 1040 ------- 0 0.0 3.0 12 18
r 1.05388 2 3 tcp 1040 ------- 0 0.0 3.0 6 9
+ 1.05388 3 2 ack 40 ------- 0 3.0 0.0 6 19
- 1.05388 3 2 ack 40 ------- 0 3.0 0.0 6 19
r 1.0542 0 1 tcp 1040 ------- 0 0.0 3.0 8 12
+ 1.0542 1 2 tcp 1040 ------- 0 0.0 3.0 8 12
- 1.0542 1 2 tcp 1040 ------- 0 0.0 3.0 8 12
r 1.05504 3 2 ack 40 ------- 0 3.0 0.0 6 19
+ 1.05504 2 1 ack 40 ------- 0 3.0 0.0 6 19
- 1.05504 2 1 ack 40 ------- 0 3.0 0.0 6 19
r 1.0552 1 2 tcp 1040 ------- 0 0.0 3.0 7 11
+ 1.0552 2 3 tcp 1040 ------- 0 0.0 3.0 7 11
- 1.0552 2 3 tcp 1040 ------- 0 0.0 3.0 7 11
r 1.0562 2 1 ack 40 ------- 0 3.0 0.0 6 19
+ 1.0562 1 0 ack 40 ------- 0 3.0 0.0 6 19
- 1.0562 1 0 ack 40 ------- 0 3.0 0.0 6 19
- 1.05736 0 1 tcp 1040 ------- 0 0.0 3.0 10 15
r 1.05736 1 0 ack 40 ------- 0 3.0 0.0 6 19
+ 1.05736 0 1 tcp 1040 ------- 0 0.0 3.0 13 20
+ 1.05736 0 1 tcp 1040 ------- 0 0.0 3.0 14 21
r 1.05836 0 1 tcp 1040 ------- 0 0.0 3.0 9 14
+ 1.05836 1 2 tcp 1040 ------- 0 0.0 3.0 9 14
- 1.05836 1 2 tcp 1040 ------- 0 0.0 3.0 9 14
r 1.05936 1 2 tcp 1040 ------- 0 0.0 3.0 8 12
+ 1.05936 2 3 tcp 1040 ------- 0 0.0 3.0 8 12
- 1.05936 2 3 tcp 1040 ------- 0 0.0 3.0 8 12
r 1.06036 2 3 tcp 1040 ------- 0 0.0 3.0 7 11
+ 1.06036 3 2 ack 40 ------- 0 3.0 0.0 7 22
- 1.06036 3 2 ack 40 ------- 0 3.0 0.0 7 22
- 1.06152 0 1 tcp 1040 ------- 0 0.0 3.0 11 17
r 1.06152 3 2 ack 40 ------- 0 3.0 0.0 7 22
+ 1.06152 2 1 ack 40 ------- 0 3.0 0.0 7 22
- 1.06152 2 1 ack 40 ------- 0 3.0 0.0 7 22
r 1.06252 0 1 tcp 1040 ------- 0 0.0 3.0 10 15
+ 1.06252 1 2 tcp 1040 ------- 0 0.0 3.0 10 15
- 1.06252 1 2 tcp 1040 ------- 0 0.0 3.0 10 15
r 1.06268 2 1 ack 40 ------- 0 3.0 0.0 7 22
+ 1.06268 1 0 ack 40 ------- 0 3.0 0.0 7 22
- 1.06268 1 0 ack 40 ------- 0 3.0 0.0 7 22
r 1.06352 1 2 tcp 1040 ------- 0 0.0 3.0 9 14
+ 1.06352 2 3 tcp 1040 ------- 0 0.0 3.0 9 14
- 1.06352 2 3 tcp 1040 ------- 0 0.0 3.0 9 14
r 1.06384 1 0 ack 40 ------- 0 3.0 0.0 7 22
+ 1.06384 0 1 tcp 1040 ------- 0 0.0 3.0 15 23
+ 1.06384 0 1 tcp 1040 ------- 0 0.0 3.0 16 24
r 1.06452 2 3 tcp 1040 ------- 0 0.0 3.0 8 12
+ 1.06452 3 2 ack 40 ------- 0 3.0 0.0 8 25
- 1.06452 3 2 ack 40 ------- 0 3.0 0.0 8 25
- 1.06568 0 1 tcp 1040 ------- 0 0.0 3.0 12 18
r 1.06568 3 2 ack 40 ------- 0 3.0 0.0 8 25
+ 1.06568 2 1 ack 40 ------- 0 3.0 0.0 8 25
- 1.06568 2 1 ack 40 ------- 0 3.0 0.0 8 25
r 1.06668 0 1 tcp 1040 ------- 0 0.0 3.0 11 17
+ 1.06668 1 2 tcp 1040 ------- 0 0.0 3.0 11 17
- 1.06668 1 2 tcp 1040 ------- 0 0.0 3.0 11 17
r 1.06684 2 1 ack 40 ------- 0 3.0 0.0 8 25
+ 1.06684 1 0 ack 40 ------- 0 3.0 0.0 8 25
- 1.06684 1 0 ack 40 ------- 0 3.0 0.0 8 25
r 1.06768 1 2 tcp 1040 ------- 0 0.0 3.0 10 15
+ 1.06768 2 3 tcp 1040 ------- 0 0.0 3.0 10 15
- 1.06768 2 3 tcp 1040 ------- 0 0.0 3.0 10 15
r 1.068 1 0 ack 40 ------- 0 3.0 0.0 8 25
+ 1.068 0 1 tcp 1040 ------- 0 0.0 3.0 17 26
+ 1.068 0 1 tcp 1040 ------- 0 0.0 3.0 18 27
r 1.06868 2 3 tcp 1040 ------- 0 0.0 3.0 9 14
+ 1.06868 3 2 ack 40 ------- 0 3.0 0.0 9 28
- 1.06868 3 2 ack 40 ------- 0 3.0 0.0 9 28
- 1.06984 0 1 tcp 1040 ------- 0 0.0 3.0 13 20
r 1.06984 3 2 ack 40 ------- 0 3.0 0.0 9 28
+ 1.06984 2 1 ack 40 ------- 0 3.0 0.0 9 28
- 1.06984 2 1 ack 40 ------- 0 3.0 0.0 9 28
r 1.07084 0 1 tcp 1040 ------- 0 0.0 3.0 12 18
+ 1.07084 1 2 tcp 1040 ------- 0 0.0 3.0 12 18
- 1.07084 1 2 tcp 1040 ------- 0 0.0 3.0 12 18
r 1.071 2 1 ack 40 ------- 0 3.0 0.0 9 28
+ 1.071 1 0 ack 40 ------- 0 3.0 0.0 9 28
- 1.071 1 0 ack 40 ------- 0 3.0 0.0 9 28
r 1.07184 1 2 tcp 1040 ------- 0 0.0 3.0 11 17
+ 1.07184 2 3 tcp 1040 ------- 0 0.0 3.0 11 17
- 1.07184 2 3 tcp 1040 ------- 0 0.0 3.0 11 17
r 1.07216 1 0 ack 40 ------- 0 3.0 0.0 9 28
+ 1.07216 0 1 tcp 1040 ------- 0 0.0 3.0 19 29
+ 1.07216 0 1 tcp 1040 ------- 0 0.0 3.0 20 30
r 1.07284 2 3 tcp 1040 ------- 0 0.0 3.0 10 15
+ 1.07284 3 2 ack 40 ------- 0 3.0 0.0 10 31
- 1.07284 3 2 ack 40 ------- 0 3.0 0.0 10 31
- 1.074 0 1 tcp 1040 ------- 0 0.0 3.0 14 21
r 1.074 3 2 ack 40 ------- 0 3.0 0.0 10 31
+ 1.074 2 1 ack 40 ------- 0 3.0 0.0 10 31
- 1.074 2 1 ack 40 ------- 0 3.0 0.0 10 31
r 1.075 0 1 tcp 1040 ------- 0 0.0 3.0 13 20
+ 1.075 1 2 tcp 1040 ------- 0 0.0 3.0 13 20
- 1.075 1 2 tcp 1040 ------- 0 0.0 3.0 13 20
r 1.07516 2 1 ack 40 ------- 0 3.0 0.0 10 31
+ 1.07516 1 0 ack 40 ------- 0 3.0 0.0 10 31
- 1.07516 1 0 ack 40 ------- 0 3.0 0.0 10 31
r 1.076 1 2 tcp 1040 ------- 0 0.0 3.0 12 18
+ 1.076 2 3 tcp 1040 ------- 0 0.0 3.0 12 18
- 1.076 2 3 tcp 1040 ------- 0 0.0 3.0 12 18
r 1.07632 1 0 ack 40 ------- 0 3.0 0.0 10 31
+ 1.07632 0 1 tcp 1040 ------- 0 0.0 3.0 21 32
+ 1.07632 0 1 tcp 1040 ------- 0 0.0 3.0 22 33
r 1.077 2 3 tcp 1040 ------- 0 0.0 3.0 11 17
+ 1.077 3 2 ack 40 ------- 0 3.0 0.0 11 34
- 1.077 3 2 ack 40 ------- 0 3.0 0.0 11 34
- 1.07816 0 1 tcp 1040 ------- 0 0.0 3.0 15 23
r 1.07816 3 2 ack 40 ------- 0 3.0 0.0 11 34
+ 1.07816 2 1 ack 40 ------- 0 3.0 0.0 11 34
- 1.07816 2 1 ack 40 ------- 0 3.0 0.0 11 34
r 1.07916 0 1 tcp 1040 ------- 0 0.0 3.0 14 21
+ 1.07916 1 2 tcp 1040 ------- 0 0.0 3.0 14 21
- 1.07916 1 2 tcp 1040 ------- 0 0.0 3.0 14 21
r 1.07932 2 1 ack 40 ------- 0 3.0 0.0 11 34
+ 1.07932 1 0 ack 40 ------- 0 3.0 0.0 11 34
- 1.07932 1 0 ack 40 ------- 0 3.0 0.0 11 34
r 1.08016 1 2 tcp 1040 ------- 0 0.0 3.0 13 20
+ 1.08016 2 3 tcp 1040 ------- 0 0.0 3.0 13 20
- 1.08016 2 3 tcp 1040 ------- 0 0.0 3.0 13 20
r 1.08048 1 0 ack 40 ------- 0 3.0 0.0 11 34
+ 1.08048 0 1 tcp 1040 ------- 0 0.0 3.0 23 35
+ 1.08048 0 1 tcp 1040 ------- 0 0.0 3.0 24 36
r 1.08116 2 3 tcp 1040 ------- 0 0.0 3.0 12 18
+ 1.08116 3 2 ack 40 ------- 0 3.0 0.0 12 37
- 1.08116 3 2 ack 40 ------- 0 3.0 0.0 12 37
- 1.08232 0 1 tcp 1040 ------- 0 0.0 3.0 16 24
r 1.08232 3 2 ack 40 ------- 0 3.0 0.0 12 37
+ 1.08232 2 1 ack 40 ------- 0 3.0 0.0 12 37
- 1.08232 2 1 ack 40 ------- 0 3.0 0.0 12 37
r 1.08332 0 1 tcp 1040 ------- 0 0.0 3.0 15 23
+ 1.08332 1 2 tcp 1040 ------- 0 0.0 3.0 15 23
- 1.08332 1 2 tcp 1040 ------- 0 0.0 3.0 15 23
r 1.08348 2 1 ack 40 ------- 0 3.0 0.0 12 37
+ 1.08348 1 0 ack 40 ------- 0 3.0 0.0 12 37
- 1.08348 1 0 ack 40 ------- 0 3.0 0.0 12 37
r 1.08432 1 2 tcp 1040 ------- 0 0.0 3.0 14 21
+ 1.08432 2 3 tcp 1040 ------- 0 0.0 3.0 14 21
- 1.08432 2 3 tcp 1040 ------- 0 0.0 3.0 14 21
r 1.08464 1 0 ack 40 ------- 0 3.0 0.0 12 37
+ 1.08464 0 1 tcp 1040 ------- 0 0.0 3.0 25 38
+ 1.08464 0 1 tcp 1040 ------- 0 0.0 3.0 26 39
r 1.08532 2 3 tcp 1040 ------- 0 0.0 3.0 13 20
+ 1.08532 3 2 ack 40 ------- 0 3.0 0.0 13 40
- 1.08532 3 2 ack 40 ------- 0 3.0 0.0 13 40
- 1.08648 0 1 tcp 1040 ------- 0 0.0 3.0 17 26
r 1.08648 3 2 ack 40 ------- 0 3.0 0.0 13 40
+ 1.08648 2 1 ack 40 ------- 0 3.0 0.0 13 40
- 1.08648 2 1 ack 40 ------- 0 3.0 0.0 13 40
r 1.08748 0 1 tcp 1040 ------- 0 0.0 3.0 16 24
+ 1.08748 1 2 tcp 1040 ------- 0 0.0 3.0 16 24
- 1.08748 1 2 tcp 1040 ------- 0 0.0 3.0 16 24
r 1.08764 2 1 ack 40 ------- 0 3.0 0.0 13 40
+ 1.08764 1 0 ack 40 ------- 0 3.0 0.0 13 40
- 1.08764 1 0 ack 40 ------- 0 3.0 0.0 13 40
r 1.08848 1 2 tcp 1040 ------- 0 0.0 3.0 15 23
+ 1.08848 2 3 tcp 1040 ------- 0 0.0 3.0 15 23
- 1.08848 2 3 tcp 1040 ------- 0 0.0 3.0 15 23
r 1.0888 1 0 ack 40 ------- 0 3.0 0.0 13 40
+ 1.0888 0 1 tcp 1040 ------- 0 0.0 3.0 27 41
+ 1.0888 0 1 tcp 1040 ------- 0 0.0 3.0 28 42
r 1.08948 2 3 tcp 1040 ------- 0 0.0 3.0 14 21
+ 1.08948 3 2 ack 40 ------- 0 3.0 0.0 14 43
- 1.08948 3 2 ack 40 ------- 0 3.0 0.0 14 43
- 1.09064 0 1 tcp 1040 ------- 0 0.0 3.0 18 27
r 1.09064 3 2 ack 40 ------- 0 3.0 0.0 14 43
+ 1.09064 2 1 ack 40 ------- 0 3.0 0.0 14 43
- 1.09064 2 1 ack 40 ------- 0 3.0 0.0 14 43
r 1.09164 0 1 tcp 1040 ------- 0 0.0 3.0 17 26
+ 1.09164 1 2 tcp 1040 ------- 0 0.0 3.0 17 26
- 1.09164 1 2 tcp 1040 ------- 0 0.0 3.0 17 26
r 1.0918 2 1 ack 40 ------- 0 3.0 0.0 14 43
+ 1.0918 1 0 ack 40 ------- 0 3.0 0.0 14 43
- 1.0918 1 0 ack 40 ------- 0 3.0 0.0 14 43
r 1.09264 1 2 tcp 1040 ------- 0 0.0 3.0 16 24
+ 1.09264 2 3 tcp 1040 ------- 0 0.0 3.0 16 24
- 1.09264 2 3 tcp 1040 ------- 0 0.0 3.0 16 24
r 1.09296 1 0 ack 40 ------- 0 3.0 0.0 14 43
+ 1.09296 0 1 tcp 1040 ------- 0 0.0 3.0 29 44
+ 1.09296 0 1 tcp 1040 ------- 0 0.0 3.0 30 45
r 1.09364 2 3 tcp 1040 ------- 0 0.0 3.0 15 23
+ 1.09364 3 2 ack 40 ------- 0 3.0 0.0 15 46
- 1.09364 3 2 ack 40 ------- 0 3.0 0.0 15 46
- 1.0948 0 1 tcp 1040 ------- 0 0.0 3.0 19 29
r 1.0948 3 2 ack 40 ------- 0 3.0 0.0 15 46
+ 1.0948 2 1 ack 40 ------- 0 3.0 0.0 15 46
- 1.0948 2 1 ack 40 ------- 0 3.0 0.0 15 46
r 1.0958 0 1 tcp 1040 ------- 0 0.0 3.0 18 27
+ 1.0958 1 2 tcp 1040 ------- 0 0.0 3.0 18 27
- 1.0958 1 2 tcp 1040 ------- 0 0.0 3.0 18 27
r 1.09596 2 1 ack 40 ------- 0 3.0 0.0 15 46
+ 1.09596 1 0 ack 40 ------- 0 3.0 0.0 15 46
- 1.09596 1 0 ack 40 ------- 0 3.0 0.0 15 46
r 1.0968 1 2 tcp 1040 ------- 0 0.0 3.0 17 26
+ 1.0968 2 3 tcp 1040 ------- 0 0.0 3.0 17 26
- 1.0968 2 3 tcp 1040 ------- 0 0.0 3.0 17 26
r 1.09712 1 0 ack 40 ------- 0 3.0 0.0 15 46
+ 1.09712 0 1 tcp 1040 ------- 0 0.0 3.0 31 47
+ 1.09712 0 1 tcp 1040 ------- 0 0.0 3.0 32 48
r 1.0978 2 3 tcp 1040 ------- 0 0.0 3.0 16 24
+ 1.0978 3 2 ack 40 ------- 0 3.0 0.0 16 49
- 1.0978 3 2 ack 40 ------- 0 3.0 0.0 16 49
- 1.09896 0 1 tcp 1040 ------- 0 0.0 3.0 20 30
r 1.09896 3 2 ack 40 ------- 0 3.0 0.0 16 49
+ 1.09896 2 1 ack 40 ------- 0 3.0 0.0 16 49
- 1.09896 2 1 ack 40 ------- 0 3.0 0.0 16 49
r 1.09996 0 1 tcp 1040 ------- 0 0.0 3.0 19 29
+ 1.09996 1 2 tcp 1040 ------- 0 0.0 3.0 19 29
- 1.09996 1 2 tcp 1040 ------- 0 0.0 3.0 19 29
r 1.10012 2 1 ack 40 ------- 0 3.0 0.0 16 49
+ 1.10012 1 0 ack 40 ------- 0 3.0 0.0 16 49
- 1.10012 1 0 ack 40 ------- 0 3.0 0.0 16 49
r 1.10096 1 2 tcp 1040 ------- 0 0.0 3.0 18 27
+ 1.10096 2 3 tcp 1040 ------- 0 0.0 3.0 18 27
- 1.10096 2 3 tcp 1040 ------- 0 0.0 3.0 18 27
r 1.10128 1 0 ack 40 ------- 0 3.0 0.0 16 49
+ 1.10128 0 1 tcp 1040 ------- 0 0.0 3.0 33 50
+ 1.10128 0 1 tcp 1040 ------- 0 0.0 3.0 34 51
r 1.10196 2 3 tcp 1040 ------- 0 0.0 3.0 17 26
+ 1.10196 3 2 ack 40 ------- 0 3.0 0.0 17 52
- 1.10196 3 2 ack 40 ------- 0 3.0 0.0 17 52
- 1.10312 0 1 tcp 1040 ------- 0 0.0 3.0 21 32
r 1.10312 3 2 ack 40 ------- 0 3.0 0.0 17 52
+ 1.10312 2 1 ack 40 ------- 0 3.0 0.0 17 52
- 1.10312 2 1 ack 40 ------- 0 3.0 0.0 17 52
r 1.10412 0 1 tcp 1040 ------- 0 0.0 3.0 20 30
+ 1.10412 1 2 tcp 1040 ------- 0 0.0 3.0 20 30
- 1.10412 1 2 tcp 1040 ------- 0 0.0 3.0 20 30
r 1.10428 2 1 ack 40 ------- 0 3.0 0.0 17 52
+ 1.10428 1 0 ack 40 ------- 0 3.0 0.0 17 52
- 1.10428 1 0 ack 40 ------- 0 3.0 0.0 17 52
r 1.10512 1 2 tcp 1040 ------- 0 0.0 3.0 19 29
+ 1.10512 2 3 tcp 1040 ------- 0 0.0 3.0 19 29
- 1.10512 2 3 tcp 1040 ------- 0 0.0 3.0 19 29
r 1.10544 1 0 ack 40 ------- 0 3.0 0.0 17 52
+ 1.10544 0 1 tcp 1040 ------- 0 0.0 3.0 35 53
+ 1.10544 0 1 tcp 1040 ------- 0 0.0 3.0 36 54
r 1.10612 2 3 tcp 1040 ------- 0 0.0 3.0 18 27
+ 1.10612 3 2 ack 40 ------- 0 3.0 0.0 18 55
- 1.10612 3 2 ack 40 ------- 0 3.0 0.0 18 55
- 1.10728 0 1 tcp 1040 ------- 0 0.0 3.0 22 33
r 1.10728 3 2 ack 40 ------- 0 3.0 0.0 18 55
+ 1.10728 2 1 ack 40 ------- 0 3.0 0.0 18 55
- 1.10728 2 1 ack 40 ------- 0 3.0 0.0 18 55
r 1.10828 0 1 tcp 1040 ------- 0 0.0 3.0 21 32
+ 1.10828 1 2 tcp 1040 ------- 0 0.0 3.0 21 32
- 1.10828 1 2 tcp 1040 ------- 0 0.0 3.0 21 32
r 1.10844 2 1 ack 40 ------- 0 3.0 0.0 18 55
+ 1.10844 1 0 ack 40 ------- 0 3.0 0.0 18 55
- 1.10844 1 0 ack 40 ------- 0 3.0 0.0 18 55
r 1.10928 1 2 tcp 1040 ------- 0 0.0 3.0 20 30
+ 1.10928 2 3 tcp 1040 ------- 0 0.0 3.0 20 30
- 1.10928 2 3 tcp 1040 ------- 0 0.0 3.0 20 30
r 1.1096 1 0 ack 40 ------- 0 3.0 0.0 18 55
+ 1.1096 0 1 tcp 1040 ------- 0 0.0 3.0 37 56
+ 1.1096 0 1 tcp 1040 ------- 0 0.0 3.0 38 57
r 1.11028 2 3 tcp 1040 ------- 0 0.0 3.0 19 29
+ 1.11028 3 2 ack 40 ------- 0 3.0 0.0 19 58
- 1.11028 3 2 ack 40 ------- 0 3.0 0.0 19 58
- 1.11144 0 1 tcp 1040 ------- 0 0.0 3.0 23 35
r 1.11144 3 2 ack 40 ------- 0 3.0 0.0 19 58
+ 1.11144 2 1 ack 40 ------- 0 3.0 0.0 19 58
- 1.11144 2 1 ack 40 ------- 0 3.0 0.0 19 58
r 1.11244 0 1 tcp 1040 ------- 0 0.0 3.0 22 33
+ 1.11244 1 2 tcp 1040 ------- 0 0.0 3.0 22 33
- 1.11244 1 2 tcp 1040 ------- 0 0.0 3.0 22 33
r 1.1126 2 1 ack 40 ------- 0 3.0 0.0 19 58
+ 1.1126 1 0 ack 40 ------- 0 3.0 0.0 19 58
- 1.1126 1 0 ack 40 ------- 0 3.0 0.0 19 58
r 1.11344 1 2 tcp 1040 ------- 0 0.0 3.0 21 32
+ 1.11344 2 3 tcp 1040 ------- 0 0.0 3.0 21 32
- 1.11344 2 3 tcp 1040 ------- 0 0.0 3.0 21 32
r 1.11376 1 0 ack 40 ------- 0 3.0 0.0 19 58
+ 1.11376 0 1 tcp 1040 ------- 0 0.0 3.0 39 59
r 1.11444 2 3 tcp 1040 ------- 0 0.0 3.0 20 30
+ 1.11444 3 2 ack 40 ------- 0 3.0 0.0 20 60
- 1.11444 3 2 ack 40 ------- 0 3.0 0.0 20 60
- 1.1156 0 1 tcp 1040 ------- 0 0.0 3.0 24 36
r 1.1156 3 2 ack 40 ------- 0 3.0 0.0 20 60
+ 1.1156 2 1 ack 40 ------- 0 3.0 0.0 20 60
- 1.1156 2 1 ack 40 ------- 0 3.0 0.0 20 60
r 1.1166 0 1 tcp 1040 ------- 0 0.0 3.0 23 35
+ 1.1166 1 2 tcp 1040 ------- 0 0.0 3.0 23 35
- 1.1166 1 2 tcp 1040 ------- 0 0.0 3.0 23 35
r 1.11676 2 1 ack 40 ------- 0 3.0 0.0 20 60
+ 1.11676 1 0 ack 40 ------- 0 3.0 0.0 20 60
- 1.11676 1 0 ack 40 ------- 0 3.0 0.0 20 60
r 1.1176 1 2 tcp 1040 ------- 0 0.0 3.0 22 33
+ 1.1176 2 3 tcp 1040 ------- 0 0.0 3.0 22 33
- 1.1176 2 3 tcp 1040 ------- 0 0.0 3.0 22 33
r 1.11792 1 0 ack 40 ------- 0 3.0 0.0 20 60
+ 1.11792 0 1 tcp 1040 ------- 0 0.0 3.0 40 61
r 1.1186 2 3 tcp 1040 ------- 0 0.0 3.0 21 32
+ 1.1186 3 2 ack 40 ------- 0 3.0 0.0 21 62
- 1.1186 3 2 ack 40 ------- 0 3.0 0.0 21 62
- 1.11976 0 1 tcp 1040 ------- 0 0.0 3.0 25 38
r 1.11976 3 2 ack 40 ------- 0 3.0 0.0 21 62
+ 1.11976 2 1 ack 40 ------- 0 3.0 0.0 21 62
- 1.11976 2 1 ack 40 ------- 0 3.0 0.0 21 62
r 1.12076 0 1 tcp 1040 ------- 0 0.0 3.0 24 36
+ 1.12076 1 2 tcp 1040 ------- 0 0.0 3.0 24 36
- 1.12076 1 2 tcp 1040 ------- 0 0.0 3.0 24 36
r 1.12092 2 1 ack 40 ------- 0 3.0 0.0 21 62
+ 1.12092 1 0 ack 40 ------- 0 3.0 0.0 21 62
- 1.12092 1 0 ack 40 ------- 0 3.0 0.0 21 62
r 1.12176 1 2 tcp 1040 ------- 0 0.0 3.0 23 35
+ 1.12176 2 3 tcp 1040 ------- 0 0.0 3.0 23 35
- 1.12176 2 3 tcp 1040 ------- 0 0.0 3.0 23 35
r 1.12208 1 0 ack 40 ------- 0 3.0 0.0 21 62
+ 1.12208 0 1 tcp 1040 ------- 0 0.0 3.0 41 63
r 1.12276 2 3 tcp 1040 ------- 0 0.0 3.0 22 33
+ 1.12276 3 2 ack 40 ------- 0 3.0 0.0 22 64
- 1.12276 3 2 ack 40 ------- 0 3.0 0.0 22 64
- 1.12392 0 1 tcp 1040 ------- 0 0.0 3.0 26 39
r 1.12392 3 2 ack 40 ------- 0 3.0 0.0 22 64
+ 1.12392 2 1 ack 40 ------- 0 3.0 0.0 22 64
- 1.12392 2 1 ack 40 ------- 0 3.0 0.0 22 64
r 1.12492 0 1 tcp 1040 ------- 0 0.0 3.0 25 38
+ 1.12492 1 2 tcp 1040 ------- 0 0.0 3.0 25 38
- 1.12492 1 2 tcp 1040 ------- 0 0.0 3.0 25 38
r 1.12508 2 1 ack 40 ------- 0 3.0 0.0 22 64
+ 1.12508 1 0 ack 40 ------- 0 3.0 0.0 22 64
- 1.12508 1 0 ack 40 ------- 0 3.0 0.0 22 64
r 1.12592 1 2 tcp 1040 ------- 0 0.0 3.0 24 36
+ 1.12592 2 3 tcp 1040 ------- 0 0.0 3.0 24 36
- 1.12592 2 3 tcp 1040 ------- 0 0.0 3.0 24 36
r 1.12624 1 0 ack 40 ------- 0 3.0 0.0 22 64
+ 1.12624 0 1 tcp 1040 ------- 0 0.0 3.0 42 65
r 1.12692 2 3 tcp 1040 ------- 0 0.0 3.0 23 35
+ 1.12692 3 2 ack 40 ------- 0 3.0 0.0 23 66
- 1.12692 3 2 ack 40 ------- 0 3.0 0.0 23 66
- 1.12808 0 1 tcp 1040 ------- 0 0.0 3.0 27 41
r 1.12808 3 2 ack 40 ------- 0 3.0 0.0 23 66
+ 1.12808 2 1 ack 40 ------- 0 3.0 0.0 23 66
- 1.12808 2 1 ack 40 ------- 0 3.0 0.0 23 66
r 1.12908 0 1 tcp 1040 ------- 0 0.0 3.0 26 39
+ 1.12908 1 2 tcp 1040 ------- 0 0.0 3.0 26 39
- 1.12908 1 2 tcp 1040 ------- 0 0.0 3.0 26 39
r 1.12924 2 1 ack 40 ------- 0 3.0 0.0 23 66
+ 1.12924 1 0 ack 40 ------- 0 3.0 0.0 23 66
- 1.12924 1 0 ack 40 ------- 0 3.0 0.0 23 66
r 1.13008 1 2 tcp 1040 ------- 0 0.0 3.0 25 38
+ 1.13008 2 3 tcp 1040 ------- 0 0.0 3.0 25 38
- 1.13008 2 3 tcp 1040 ------- 0 0.0 3.0 25 38
r 1.1304 1 0 ack 40 ------- 0 3.0 0.0 23 66
+ 1.1304 0 1 tcp 1040 ------- 0 0.0 3.0 43 67
r 1.13108 2 3 tcp 1040 ------- 0 0.0 3.0 24 36
+ 1.13108 3 2 ack 40 ------- 0 3.0 0.0 24 68
- 1.13108 3 2 ack 40 ------- 0 3.0 0.0 24 68
- 1.13224 0 1 tcp 1040 ------- 0 0.0 3.0 28 42
r 1.13224 3 2 ack 40 ------- 0 3.0 0.0 24 68
+ 1.13224 2 1 ack 40 ------- 0 3.0 0.0 24 68
- 1.13224 2 1 ack 40 ------- 0 3.0 0.0 24 68
r 1.13324 0 1 tcp 1040 ------- 0 0.0 3.0 27 41
+ 1.13324 1 2 tcp 1040 ------- 0 0.0 3.0 27 41
- 1.13324 1 2 tcp 1040 ------- 0 0.0 3.0 27 41
r 1.1334 2 1 ack 40 ------- 0 3.0 0.0 24 68
+ 1.1334 1 0 ack 40 ------- 0 3.0 0.0 24 68
- 1.1334 1 0 ack 40 ------- 0 3.0 0.0 24 68
r 1.13424 1 2 tcp 1040 ------- 0 0.0 3.0 26 39
+ 1.13424 2 3 tcp 1040 ------- 0 0.0 3.0 26 39
- 1.13424 2 3 tcp 1040 ------- 0 0.0 3.0 26 39
r 1.13456 1 0 ack 40 ------- 0 3.0 0.0 24 68
+ 1.13456 0 1 tcp 1040 ------- 0 0.0 3.0 44 69
r 1.13524 2 3 tcp 1040 ------- 0 0.0 3.0 25 38
+ 1.13524 3 2 ack 40 ------- 0 3.0 0.0 25 70
- 1.13524 3 2 ack 40 ------- 0 3.0 0.0 25 70
- 1.1364 0 1 tcp 1040 ------- 0 0.0 3.0 29 44
r 1.1364 3 2 ack 40 ------- 0 3.0 0.0 25 70
+ 1.1364 2 1 ack 40 ------- 0 3.0 0.0 25 70
- 1.1364 2 1 ack 40 ------- 0 3.0 0.0 25 70
r 1.1374 0 1 tcp 1040 ------- 0 0.0 3.0 28 42
+ 1.1374 1 2 tcp 1040 ------- 0 0.0 3.0 28 42
- 1.1374 1 2 tcp 1040 ------- 0 0.0 3.0 28 42
r 1.13756 2 1 ack 40 ------- 0 3.0 0.0 25 70
+ 1.13756 1 0 ack 40 ------- 0 3.0 0.0 25 70
- 1.13756 1 0 ack 40 ------- 0 3.0 0.0 25 70
r 1.1384 1 2 tcp 1040 ------- 0 0.0 3.0 27 41
+ 1.1384 2 3 tcp 1040 ------- 0 0.0 3.0 27 41
- 1.1384 2 3 tcp 1040 ------- 0 0.0 3.0 27 41
r 1.13872 1 0 ack 40 ------- 0 3.0 0.0 25 70
+ 1.13872 0 1 tcp 1040 ------- 0 0.0 3.0 45 71
r 1.1394 2 3 tcp 1040 ------- 0 0.0 3.0 26 39
+ 1.1394 3 2 ack 40 ------- 0 3.0 0.0 26 72
- 1.1394 3 2 ack 40 ------- 0 3.0 0.0 26 72
- 1.14056 0 1 tcp 1040 ------- 0 0.0 3.0 30 45
r 1.14056 3 2 ack 40 ------- 0 3.0 0.0 26 72
+ 1.14056 2 1 ack 40 ------- 0 3.0 0.0 26 72
- 1.14056 2 1 ack 40 ------- 0 3.0 0.0 26 72
r 1.14156 0 1 tcp 1040 ------- 0 0.0 3.0 29 44
+ 1.14156 1 2 tcp 1040 ------- 0 0.0 3.0 29 44
- 1.14156 1 2 tcp 1040 ------- 0 0.0 3.0 29 44
r 1.14172 2 1 ack 40 ------- 0 3.0 0.0 26 72
+ 1.14172 1 0 ack 40 ------- 0 3.0 0.0 26 72
- 1.14172 1 0 ack 40 ------- 0 3.0 0.0 26 72
r 1.14256 1 2 tcp 1040 ------- 0 0.0 3.0 28 42
+ 1.14256 2 3 tcp 1040 ------- 0 0.0 3.0 28 42
- 1.14256 2 3 tcp 1040 ------- 0 0.0 3.0 28 42
r 1.14288 1 0 ack 40 ------- 0 3.0 0.0 26 72
+ 1.14288 0 1 tcp 1040 ------- 0 0.0 3.0 46 73
r 1.14356 2 3 tcp 1040 ------- 0 0.0 3.0 27 41
+ 1.14356 3 2 ack 40 ------- 0 3.0 0.0 27 74
- 1.14356 3 2 ack 40 ------- 0 3.0 0.0 27 74
- 1.14472 0 1 tcp 1040 ------- 0 0.0 3.0 31 47
r 1.14472 3 2 ack 40 ------- 0 3.0 0.0 27 74
+ 1.14472 2 1 ack 40 ------- 0 3.0 0.0 27 74
- 1.14472 2 1 ack 40 ------- 0 3.0 0.0 27 74
r 1.14572 0 1 tcp 1040 ------- 0 0.0 3.0 30 45
+ 1.14572 1 2 tcp 1040 ------- 0 0.0 3.0 30 45
- 1.14572 1 2 tcp 1040 ------- 0 0.0 3.0 30 45
r 1.14588 2 1 ack 40 ------- 0 3.0 0.0 27 74
+ 1.14588 1 0 ack 40 ------- 0 3.0 0.0 27 74
- 1.14588 1 0 ack 40 ------- 0 3.0 0.0 27 74
r 1.14672 1 2 tcp 1040 ------- 0 0.0 3.0 29 44
+ 1.14672 2 3 tcp 1040 ------- 0 0.0 3.0 29 44
- 1.14672 2 3 tcp 1040 ------- 0 0.0 3.0 29 44
r 1.14704 1 0 ack 40 ------- 0 3.0 0.0 27 74
+ 1.14704 0 1 tcp 1040 ------- 0 0.0 3.0 47 75
r 1.14772 2 3 tcp 1040 ------- 0 0.0 3.0 28 42
+ 1.14772 3 2 ack 40 ------- 0 3.0 0.0 28 76
- 1.14772 3 2 ack 40 ------- 0 3.0 0.0 28 76
- 1.14888 0 1 tcp 1040 ------- 0 0.0 3.0 32 48
r 1.14888 3 2 ack 40 ------- 0 3.0 0.0 28 76
+ 1.14888 2 1 ack 40 ------- 0 3.0 0.0 28 76
- 1.14888 2 1 ack 40 ------- 0 3.0 0.0 28 76
r 1.14988 0 1 tcp 1040 ------- 0 0.0 3.0 31 47
+ 1.14988 1 2 tcp 1040 ------- 0 0.0 3.0 31 47
- 1.14988 1 2 tcp 1040 ------- 0 0.0 3.0 31 47
r 1.15004 2 1 ack 40 ------- 0 3.0 0.0 28 76
+ 1.15004 1 0 ack 40 ------- 0 3.0 0.0 28 76
- 1.15004 1 0 ack 40 ------- 0 3.0 0.0 28 76
r 1.15088 1 2 tcp 1040 ------- 0 0.0 3.0 30 45
+ 1.15088 2 3 tcp 1040 ------- 0 0.0 3.0 30 45
- 1.15088 2 3 tcp 1040 ------- 0 0.0 3.0 30 45
r 1.1512 1 0 ack 40 ------- 0 3.0 0.0 28 76
+ 1.1512 0 1 tcp 1040 ------- 0 0.0 3.0 48 77
r 1.15188 2 3 tcp 1040 ------- 0 0.0 3.0 29 44
+ 1.15188 3 2 ack 40 ------- 0 3.0 0.0 29 78
- 1.15188 3 2 ack 40 ------- 0 3.0 0.0 29 78
- 1.15304 0 1 tcp 1040 ------- 0 0.0 3.0 33 50
r 1.15304 3 2 ack 40 ------- 0 3.0 0.0 29 78
+ 1.15304 2 1 ack 40 ------- 0 3.0 0.0 29 78
- 1.15304 2 1 ack 40 ------- 0 3.0 0.0 29 78
r 1.15404 0 1 tcp 1040 ------- 0 0.0 3.0 32 48
+ 1.15404 1 2 tcp 1040 ------- 0 0.0 3.0 32 48
- 1.15404 1 2 tcp 1040 ------- 0 0.0 3.0 32 48
r 1.1542 2 1 ack 40 ------- 0 3.0 0.0 29 78
+ 1.1542 1 0 ack 40 ------- 0 3.0 0.0 29 78
- 1.1542 1 0 ack 40 ------- 0 3.0 0.0 29 78
r 1.15504 1 2 tcp 1040 ------- 0 0.0 3.0 31 47
+ 1.15504 2 3 tcp 1040 ------- 0 0.0 3.0 31 47
- 1.15504 2 3 tcp 1040 ------- 0 0.0 3.0 31 47
r 1.15536 1 0 ack 40 ------- 0 3.0 0.0 29 78
+ 1.15536 0 1 tcp 1040 ------- 0 0.0 3.0 49 79
r 1.15604 2 3 tcp 1040 ------- 0 0.0 3.0 30 45
+ 1.15604 3 2 ack 40 ------- 0 3.0 0.0 30 80
- 1.15604 3 2 ack 40 ------- 0 3.0 0.0 30 80
- 1.1572 0 1 tcp 1040 ------- 0 0.0 3.0 34 51
r 1.1572 3 2 ack 40 ------- 0 3.0 0.0 30 80
+ 1.1572 2 1 ack 40 ------- 0 3.0 0.0 30 80
- 1.1572 2 1 ack 40 ------- 0 3.0 0.0 30 80
r 1.1582 0 1 tcp 1040 ------- 0 0.0 3.0 33 50
+ 1.1582 1 2 tcp 1040 ------- 0 0.0 3.0 33 50
- 1.1582 1 2 tcp 1040 ------- 0 0.0 3.0 33 50
r 1.15836 2 1 ack 40 ------- 0 3.0 0.0 30 80
+ 1.15836 1 0 ack 40 ------- 0 3.0 0.0 30 80
- 1.15836 1 0 ack 40 ------- 0 3.0 0.0 30 80
r 1.1592 1 2 tcp 1040 ------- 0 0.0 3.0 32 48
+ 1.1592 2 3 tcp 1040 ------- 0 0.0 3.0 32 48
- 1.1592 2 3 tcp 1040 ------- 0 0.0 3.0 32 48
r 1.15952 1 0 ack 40 ------- 0 3.0 0.0 30 80
+ 1.15952 0 1 tcp 1040 ------- 0 0.0 3.0 50 81
r 1.1602 2 3 tcp 1040 ------- 0 0.0 3.0 31 47
+ 1.1602 3 2 ack 40 ------- 0 3.0 0.0 31 82
- 1.1602 3 2 ack 40 ------- 0 3.0 0.0 31 82
- 1.16136 0 1 tcp 1040 ------- 0 0.0 3.0 35 53
r 1.16136 3 2 ack 40 ------- 0 3.0 0.0 31 82
+ 1.16136 2 1 ack 40 ------- 0 3.0 0.0 31 82
- 1.16136 2 1 ack 40 ------- 0 3.0 0.0 31 82
r 1.16236 0 1 tcp 1040 ------- 0 0.0 3.0 34 51
+ 1.16236 1 2 tcp 1040 ------- 0 0.0 3.0 34 51
- 1.16236 1 2 tcp 1040 ------- 0 0.0 3.0 34 51
r 1.16252 2 1 ack 40 ------- 0 3.0 0.0 31 82
+ 1.16252 1 0 ack 40 ------- 0 3.0 0.0 31 82
- 1.16252 1 0 ack 40 ------- 0 3.0 0.0 31 82
r 1.16336 1 2 tcp 1040 ------- 0 0.0 3.0 33 50
+ 1.16336 2 3 tcp 1040 ------- 0 0.0 3.0 33 50
- 1.16336 2 3 tcp 1040 ------- 0 0.0 3.0 33 50
r 1.16368 1 0 ack 40 ------- 0 3.0 0.0 31 82
+ 1.16368 0 1 tcp 1040 ------- 0 0.0 3.0 51 83
r 1.16436 2 3 tcp 1040 ------- 0 0.0 3.0 32 48
+ 1.16436 3 2 ack 40 ------- 0 3.0 0.0 32 84
- 1.16436 3 2 ack 40 ------- 0 3.0 0.0 32 84
- 1.16552 0 1 tcp 1040 ------- 0 0.0 3.0 36 54
r 1.16552 3 2 ack 40 ------- 0 3.0 0.0 32 84
+ 1.16552 2 1 ack 40 ------- 0 3.0 0.0 32 84
- 1.16552 2 1 ack 40 ------- 0 3.0 0.0 32 84
r 1.16652 0 1 tcp 1040 ------- 0 0.0 3.0 35 53
+ 1.16652 1 2 tcp 1040 ------- 0 0.0 3.0 35 53
- 1.16652 1 2 tcp 1040 ------- 0 0.0 3.0 35 53
r 1.16668 2 1 ack 40 ------- 0 3.0 0.0 32 84
+ 1.16668 1 0 ack 40 ------- 0 3.0 0.0 32 84
- 1.16668 1 0 ack 40 ------- 0 3.0 0.0 32 84
r 1.16752 1 2 tcp 1040 ------- 0 0.0 3.0 34 51
+ 1.16752 2 3 tcp 1040 ------- 0 0.0 3.0 34 51
- 1.16752 2 3 tcp 1040 ------- 0 0.0 3.0 34 51
r 1.16784 1 0 ack 40 ------- 0 3.0 0.0 32 84
+ 1.16784 0 1 tcp 1040 ------- 0 0.0 3.0 52 85
r 1.16852 2 3 tcp 1040 ------- 0 0.0 3.0 33 50
+ 1.16852 3 2 ack 40 ------- 0 3.0 0.0 33 86
- 1.16852 3 2 ack 40 ------- 0 3.0 0.0 33 86
- 1.16968 0 1 tcp 1040 ------- 0 0.0 3.0 37 56
r 1.16968 3 2 ack 40 ------- 0 3.0 0.0 33 86
+ 1.16968 2 1 ack 40 ------- 0 3.0 0.0 33 86
- 1.16968 2 1 ack 40 ------- 0 3.0 0.0 33 86
r 1.17068 0 1 tcp 1040 ------- 0 0.0 3.0 36 54
+ 1.17068 1 2 tcp 1040 ------- 0 0.0 3.0 36 54
- 1.17068 1 2 tcp 1040 ------- 0 0.0 3.0 36 54
r 1.17084 2 1 ack 40 ------- 0 3.0 0.0 33 86
+ 1.17084 1 0 ack 40 ------- 0 3.0 0.0 33 86
- 1.17084 1 0 ack 40 ------- 0 3.0 0.0 33 86
r 1.17168 1 2 tcp 1040 ------- 0 0.0 3.0 35 53
+ 1.17168 2 3 tcp 1040 ------- 0 0.0 3.0 35 53
- 1.17168 2 3 tcp 1040 ------- 0 0.0 3.0 35 53
r 1.172 1 0 ack 40 ------- 0 3.0 0.0 33 86
+ 1.172 0 1 tcp 1040 ------- 0 0.0 3.0 53 87
r 1.17268 2 3 tcp 1040 ------- 0 0.0 3.0 34 51
+ 1.17268 3 2 ack 40 ------- 0 3.0 0.0 34 88
- 1.17268 3 2 ack 40 ------- 0 3.0 0.0 34 88
- 1.17384 0 1 tcp 1040 ------- 0 0.0 3.0 38 57
r 1.17384 3 2 ack 40 ------- 0 3.0 0.0 34 88
+ 1.17384 2 1 ack 40 ------- 0 3.0 0.0 34 88
- 1.17384 2 1 ack 40 ------- 0 3.0 0.0 34 88
r 1.17484 0 1 tcp 1040 ------- 0 0.0 3.0 37 56
+ 1.17484 1 2 tcp 1040 ------- 0 0.0 3.0 37 56
- 1.17484 1 2 tcp 1040 ------- 0 0.0 3.0 37 56