V -t * -v 1.0a5 -a 0
A -t * -n 1 -p 0 -o 0x7fffffff -c 30 -a 1
A -t * -h 1 -m 1073741823 -s 0
n -t * -a 0 -s 0 -S UP -v circle -c red -i red
n -t * -a 1 -s 1 -S UP -v circle -c blue -i blue
n -t * -a 2 -s 2 -S UP -v circle -c green -i green
n -t * -a 3 -s 3 -S UP -v circle -c orange -i orange
l -t * -s 0 -d 1 -S UP -r 2000000 -D 0.001 -c black
l -t * -s 1 -d 2 -S UP -r 2000000 -D 0.001 -c black
l -t * -s 2 -d 3 -S UP -r 2000000 -D 0.001 -c black
n -t 1 -s 0 -S DLABEL -l "Source_Node" -L ""
n -t 1 -s 3 -S DLABEL -l "Destination_Node" -L ""
+ -t 1 -s 0 -d 1 -p tcp -e 40 -c 0 -i 0 -a 0 -x {0.0 3.0 0 ------- null}
- -t 1 -s 0 -d 1 -p tcp -e 40 -c 0 -i 0 -a 0 -x {0.0 3.0 0 ------- null}
h -t 1 -s 0 -d 1 -p tcp -e 40 -c 0 -i 0 -a 0 -x {0.0 3.0 -1 ------- null}
r -t 1.00116 -s 0 -d 1 -p tcp -e 40 -c 0 -i 0 -a 0 -x {0.0 3.0 0 ------- null}
+ -t 1.00116 -s 1 -d 2 -p tcp -e 40 -c 0 -i 0 -a 0 -x {0.0 3.0 0 ------- null}
- -t 1.00116 -s 1 -d 2 -p tcp -e 40 -c 0 -i 0 -a 0 -x {0.0 3.0 0 ------- null}
h -t 1.00116 -s 1 -d 2 -p tcp -e 40 -c 0 -i 0 -a 0 -x {0.0 3.0 -1 ------- null}
r -t 1.00232 -s 1 -d 2 -p tcp -e 40 -c 0 -i 0 -a 0 -x {0.0 3.0 0 ------- null}
+ -t 1.00232 -s 2 -d 3 -p tcp -e 40 -c 0 -i 0 -a 0 -x {0.0 3.0 0 ------- null}
- -t 1.00232 -s 2 -d 3 -p tcp -e 40 -c 0 -i 0 -a 0 -x {0.0 3.0 0 ------- null}
h -t 1.00232 -s 2 -d 3 -p tcp -e 40 -c 0 -i 0 -a 0 -x {0.0 3.0 -1 ------- null}
r -t 1.00348 -s 2 -d 3 -p tcp -e 40 -c 0 -i 0 -a 0 -x {0.0 3.0 0 ------- null}
+ -t 1.00348 -s 3 -d 2 -p ack -e 40 -c 0 -i 1 -a 0 -x {3.0 0.0 0 ------- null}
- -t 1.00348 -s 3 -d 2 -p ack -e 40 -c 0 -i 1 -a 0 -x {3.0 0.0 0 ------- null}
h -t 1.00348 -s 3 -d 2 -p ack -e 40 -c 0 -i 1 -a 0 -x {3.0 0.0 -1 ------- null}
r -t 1.00464 -s 3 -d 2 -p ack -e 40 -c 0 -i 1 -a 0 -x {3.0 0.0 0 ------- null}
+ -t 1.00464 -s 2 -d 1 -p ack -e 40 -c 0 -i 1 -a 0 -x {3.0 0.0 0 ------- null}
- -t 1.00464 -s 2 -d 1 -p ack -e 40 -c 0 -i 1 -a 0 -x {3.0 0.0 0 ------- null}
h -t 1.00464 -s 2 -d 1 -p ack -e 40 -c 0 -i 1 -a 0 -x {3.0 0.0 -1 ------- null}
r -t 1.0058 -s 2 -d 1 -p ack -e 40 -c 0 -i 1 -a 0 -x {3.0 0.0 0 ------- null}
+ -t 1.0058 -s 1 -d 0 -p ack -e 40 -c 0 -i 1 -a 0 -x {3.0 0.0 0 ------- null}
- -t 1.0058 -s 1 -d 0 -p ack -e 40 -c 0 -i 1 -a 0 -x {3.0 0.0 0 ------- null}
h -t 1.0058 -s 1 -d 0 -p ack -e 40 -c 0 -i 1 -a 0 -x {3.0 0.0 -1 ------- null}
r -t 1.00696 -s 1 -d 0 -p ack -e 40 -c 0 -i 1 -a 0 -x {3.0 0.0 0 ------- null}
+ -t 1.00696 -s 0 -d 1 -p tcp -e 1040 -c 0 -i 2 -a 0 -x {0.0 3.0 1 ------- null}
- -t 1.00696 -s 0 -d 1 -p tcp -e 1040 -c 0 -i 2 -a 0 -x {0.0 3.0 1 ------- null}
h -t 1.00696 -s 0 -d 1 -p tcp -e 1040 -c 0 -i 2 -a 0 -x {0.0 3.0 -1 ------- null}
+ -t 1.00696 -s 0 -d 1 -p tcp -e 1040 -c 0 -i 3 -a 0 -x {0.0 3.0 2 ------- null}
- -t 1.01112 -s 0 -d 1 -p tcp -e 1040 -c 0 -i 3 -a 0 -x {0.0 3.0 2 ------- null}
h -t 1.01112 -s 0 -d 1 -p tcp -e 1040 -c 0 -i 3 -a 0 -x {0.0 3.0 -1 ------- null}
r -t 1.01212 -s 0 -d 1 -p tcp -e 1040 -c 0 -i 2 -a 0 -x {0.0 3.0 1 ------- null}
+ -t 1.01212 -s 1 -d 2 -p tcp -e 1040 -c 0 -i 2 -a 0 -x {0.0 3.0 1 ------- null}
- -t 1.01212 -s 1 -d 2 -p tcp -e 1040 -c 0 -i 2 -a 0 -x {0.0 3.0 1 ------- null}
h -t 1.01212 -s 1 -d 2 -p tcp -e 1040 -c 0 -i 2 -a 0 -x {0.0 3.0 -1 ------- null}
r -t 1.01628 -s 0 -d 1 -p tcp -e 1040 -c 0 -i 3 -a 0 -x {0.0 3.0 2 ------- null}
+ -t 1.01628 -s 1 -d 2 -p tcp -e 1040 -c 0 -i 3 -a 0 -x {0.0 3.0 2 ------- null}
- -t 1.01628 -s 1 -d 2 -p tcp -e 1040 -c 0 -i 3 -a 0 -x {0.0 3.0 2 ------- null}
h -t 1.01628 -s 1 -d 2 -p tcp -e 1040 -c 0 -i 3 -a 0 -x {0.0 3.0 -1 ------- null}
r -t 1.01728 -s 1 -d 2 -p tcp -e 1040 -c 0 -i 2 -a 0 -x {0.0 3.0 1 ------- null}
+ -t 1.01728 -s 2 -d 3 -p tcp -e 1040 -c 0 -i 2 -a 0 -x {0.0 3.0 1 ------- null}
- -t 1.01728 -s 2 -d 3 -p tcp -e 1040 -c 0 -i 2 -a 0 -x {0.0 3.0 1 ------- null}
h -t 1.01728 -s 2 -d 3 -p tcp -e 1040 -c 0 -i 2 -a 0 -x {0.0 3.0 -1 ------- null}
r -t 1.02144 -s 1 -d 2 -p tcp -e 1040 -c 0 -i 3 -a 0 -x {0.0 3.0 2 ------- null}
+ -t 1.02144 -s 2 -d 3 -p tcp -e 1040 -c 0 -i 3 -a 0 -x {0.0 3.0 2 ------- null}
- -t 1.02144 -s 2 -d 3 -p tcp -e 1040 -c 0 -i 3 -a 0 -x {0.0 3.0 2 ------- null}
h -t 1.02144 -s 2 -d 3 -p tcp -e 1040 -c 0 -i 3 -a 0 -x {0.0 3.0 -1 ------- null}
r -t 1.02244 -s 2 -d 3 -p tcp -e 1040 -c 0 -i 2 -a 0 -x {0.0 3.0 1 ------- null}
+ -t 1.02244 -s 3 -d 2 -p ack -e 40 -c 0 -i 4 -a 0 -x {3.0 0.0 1 ------- null}
- -t 1.02244 -s 3 -d 2 -p ack -e 40 -c 0 -i 4 -a 0 -x {3.0 0.0 1 ------- null}
h -t 1.02244 -s 3 -d 2 -p ack -e 40 -c 0 -i 4 -a 0 -x {3.0 0.0 -1 ------- null}
r -t 1.0236 -s 3 -d 2 -p ack -e 40 -c 0 -i 4 -a 0 -x {3.0 0.0 1 ------- null}
+ -t 1.0236 -s 2 -d 1 -p ack -e 40 -c 0 -i 4 -a 0 -x {3.0 0.0 1 ------- null}
- -t 1.0236 -s 2 -d 1 -p ack -e 40 -c 0 -i 4 -a 0 -x {3.0 0.0 1 ------- null}
h -t 1.0236 -s 2 -d 1 -p ack -e 40 -c 0 -i 4 -a 0 -x {3.0 0.0 -1 ------- null}
r -t 1.02476 -s 2 -d 1 -p ack -e 40 -c 0 -i 4 -a 0 -x {3.0 0.0 1 ------- null}
+ -t 1.02476 -s 1 -d 0 -p ack -e 40 -c 0 -i 4 -a 0 -x {3.0 0.0 1 ------- null}
- -t 1.02476 -s 1 -d 0 -p ack -e 40 -c 0 -i 4 -a 0 -x {3.0 0.0 1 ------- null}
h -t 1.02476 -s 1 -d 0 -p ack -e 40 -c 0 -i 4 -a 0 -x {3.0 0.0 -1 ------- null}
r -t 1.02592 -s 1 -d 0 -p ack -e 40 -c 0 -i 4 -a 0 -x {3.0 0.0 1 ------- null}
+ -t 1.02592 -s 0 -d 1 -p tcp -e 1040 -c 0 -i 5 -a 0 -x {0.0 3.0 3 ------- null}
- -t 1.02592 -s 0 -d 1 -p tcp -e 1040 -c 0 -i 5 -a 0 -x {0.0 3.0 3 ------- null}
h -t 1.02592 -s 0 -d 1 -p tcp -e 1040 -c 0 -i 5 -a 0 -x {0.0 3.0 -1 ------- null}
+ -t 1.02592 -s 0 -d 1 -p tcp -e 1040 -c 0 -i 6 -a 0 -x {0.0 3.0 4 ------- null}
r -t 1.0266 -s 2 -d 3 -p tcp -e 1040 -c 0 -i 3 -a 0 -x {0.0 3.0 2 ------- null}
+ -t 1.0266 -s 3 -d 2 -p ack -e 40 -c 0 -i 7 -a 0 -x {3.0 0.0 2 ------- null}
- -t 1.0266 -s 3 -d 2 -p ack -e 40 -c 0 -i 7 -a 0 -x {3.0 0.0 2 ------- null}
h -t 1.0266 -s 3 -d 2 -p ack -e 40 -c 0 -i 7 -a 0 -x {3.0 0.0 -1 ------- null}
r -t 1.02776 -s 3 -d 2 -p ack -e 40 -c 0 -i 7 -a 0 -x {3.0 0.0 2 ------- null}
+ -t 1.02776 -s 2 -d 1 -p ack -e 40 -c 0 -i 7 -a 0 -x {3.0 0.0 2 ------- null}
- -t 1.02776 -s 2 -d 1 -p ack -e 40 -c 0 -i 7 -a 0 -x {3.0 0.0 2 ------- null}
h -t 1.02776 -s 2 -d 1 -p ack -e 40 -c 0 -i 7 -a 0 -x {3.0 0.0 -1 ------- null}
r -t 1.02892 -s 2 -d 1 -p ack -e 40 -c 0 -i 7 -a 0 -x {3.0 0.0 2 ------- null}
+ -t 1.02892 -s 1 -d 0 -p ack -e 40 -c 0 -i 7 -a 0 -x {3.0 0.0 2 ------- null}
- -t 1.02892 -s 1 -d 0 -p ack -e 40 -c 0 -i 7 -a 0 -x {3.0 0.0 2 ------- null}
h -t 1.02892 -s 1 -d 0 -p ack -e 40 -c 0 -i 7 -a 0 -x {3.0 0.0 -1 ------- null}
- -t 1.03008 -s 0 -d 1 -p tcp -e 1040 -c 0 -i 6 -a 0 -x {0.0 3.0 4 ------- null}
h -t 1.03008 -s 0 -d 1 -p tcp -e 1040 -c 0 -i 6 -a 0 -x {0.0 3.0 -1 ------- null}
r -t 1.03008 -s 1 -d 0 -p ack -e 40 -c 0 -i 7 -a 0 -x {3.0 0.0 2 ------- null}
+ -t 1.03008 -s 0 -d 1 -p tcp -e 1040 -c 0 -i 8 -a 0 -x {0.0 3.0 5 ------- null}
+ -t 1.03008 -s 0 -d 1 -p tcp -e 1040 -c 0 -i 9 -a 0 -x {0.0 3.0 6 ------- null}
r -t 1.03108 -s 0 -d 1 -p tcp -e 1040 -c 0 -i 5 -a 0 -x {0.0 3.0 3 ------- null}
+ -t 1.03108 -s 1 -d 2 -p tcp -e 1040 -c 0 -i 5 -a 0 -x {0.0 3.0 3 ------- null}
- -t 1.03108 -s 1 -d 2 -p tcp -e 1040 -c 0 -i 5 -a 0 -x {0.0 3.0 3 ------- null}
h -t 1.03108 -s 1 -d 2 -p tcp -e 1040 -c 0 -i 5 -a 0 -x {0.0 3.0 -1 ------- null}
- -t 1.03424 -s 0 -d 1 -p tcp -e 1040 -c 0 -i 8 -a 0 -x {0.0 3.0 5 ------- null}
h -t 1.03424 -s 0 -d 1 -p tcp -e 1040 -c 0 -i 8 -a 0 -x {0.0 3.0 -1 ------- null}
r -t 1.03524 -s 0 -d 1 -p tcp -e 1040 -c 0 -i 6 -a 0 -x {0.0 3.0 4 ------- null}
+ -t 1.03524 -s 1 -d 2 -p tcp -e 1040 -c 0 -i 6 -a 0 -x {0.0 3.0 4 ------- null}
- -t 1.03524 -s 1 -d 2 -p tcp -e 1040 -c 0 -i 6 -a 0 -x {0.0 3.0 4 ------- null}
h -t 1.03524 -s 1 -d 2 -p tcp -e 1040 -c 0 -i 6 -a 0 -x {0.0 3.0 -1 ------- null}
r -t 1.03624 -s 1 -d 2 -p tcp -e 1040 -c 0 -i 5 -a 0 -x {0.0 3.0 3 ------- null}
+ -t 1.03624 -s 2 -d 3 -p tcp -e 1040 -c 0 -i 5 -a 0 -x {0.0 3.0 3 ------- null}
- -t 1.03624 -s 2 -d 3 -p tcp -e 1040 -c 0 -i 5 -a 0 -x {0.0 3.0 3 ------- null}
h -t 1.03624 -s 2 -d 3 -p tcp -e 1040 -c 0 -i 5 -a 0 -x {0.0 3.0 -1 ------- null}
- -t 1.0384 -s 0 -d 1 -p tcp -e 1040 -c 0 -i 9 -a 0 -x {0.0 3.0 6 ------- null}
h -t 1.0384 -s 0 -d 1 -p tcp -e 1040 -c 0 -i 9 -a 0 -x {0.0 3.0 -1 ------- null}
r -t 1.0394 -s 0 -d 1 -p tcp -e 1040 -c 0 -i 8 -a 0 -x {0.0 3.0 5 ------- null}
+ -t 1.0394 -s 1 -d 2 -p tcp -e 1040 -c 0 -i 8 -a 0 -x {0.0 3.0 5 ------- null}
- -t 1.0394 -s 1 -d 2 -p tcp -e 1040 -c 0 -i 8 -a 0 -x {0.0 3.0 5 ------- null}
h -t 1.0394 -s 1 -d 2 -p tcp -e 1040 -c 0 -i 8 -a 0 -x {0.0 3.0 -1 ------- null}
r -t 1.0404 -s 1 -d 2 -p tcp -e 1040 -c 0 -i 6 -a 0 -x {0.0 3.0 4 ------- null}
+ -t 1.0404 -s 2 -d 3 -p tcp -e 1040 -c 0 -i 6 -a 0 -x {0.0 3.0 4 ------- null}
- -t 1.0404 -s 2 -d 3 -p tcp -e 1040 -c 0 -i 6 -a 0 -x {0.0 3.0 4 ------- null}
h -t 1.0404 -s 2 -d 3 -p tcp -e 1040 -c 0 -i 6 -a 0 -x {0.0 3.0 -1 ------- null}
r -t 1.0414 -s 2 -d 3 -p tcp -e 1040 -c 0 -i 5 -a 0 -x {0.0 3.0 3 ------- null}
+ -t 1.0414 -s 3 -d 2 -p ack -e 40 -c 0 -i 10 -a 0 -x {3.0 0.0 3 ------- null}
- -t 1.0414 -s 3 -d 2 -p ack -e 40 -c 0 -i 10 -a 0 -x {3.0 0.0 3 ------- null}
h -t 1.0414 -s 3 -d 2 -p ack -e 40 -c 0 -i 10 -a 0 -x {3.0 0.0 -1 ------- null}
r -t 1.04256 -s 3 -d 2 -p ack -e 40 -c 0 -i 10 -a 0 -x {3.0 0.0 3 ------- null}
+ -t 1.04256 -s 2 -d 1 -p ack -e 40 -c 0 -i 10 -a 0 -x {3.0 0.0 3 ------- null}
- -t 1.04256 -s 2 -d 1 -p ack -e 40 -c 0 -i 10 -a 0 -x {3.0 0.0 3 ------- null}
h -t 1.04256 -s 2 -d 1 -p ack -e 40 -c 0 -i 10 -a 0 -x {3.0 0.0 -1 ------- null}
r -t 1.04356 -s 0 -d 1 -p tcp -e 1040 -c 0 -i 9 -a 0 -x {0.0 3.0 6 ------- null}
+ -t 1.04356 -s 1 -d 2 -p tcp -e 1040 -c 0 -i 9 -a 0 -x {0.0 3.0 6 ------- null}
- -t 1.04356 -s 1 -d 2 -p tcp -e 1040 -c 0 -i 9 -a 0 -x {0.0 3.0 6 ------- null}
h -t 1.04356 -s 1 -d 2 -p tcp -e 1040 -c 0 -i 9 -a 0 -x {0.0 3.0 -1 ------- null}
r -t 1.04372 -s 2 -d 1 -p ack -e 40 -c 0 -i 10 -a 0 -x {3.0 0.0 3 ------- null}
+ -t 1.04372 -s 1 -d 0 -p ack -e 40 -c 0 -i 10 -a 0 -x {3.0 0.0 3 ------- null}
- -t 1.04372 -s 1 -d 0 -p ack -e 40 -c 0 -i 10 -a 0 -x {3.0 0.0 3 ------- null}
h -t 1.04372 -s 1 -d 0 -p ack -e 40 -c 0 -i 10 -a 0 -x {3.0 0.0 -1 ------- null}
r -t 1.04456 -s 1 -d 2 -p tcp -e 1040 -c 0 -i 8 -a 0 -x {0.0 3.0 5 ------- null}
+ -t 1.04456 -s 2 -d 3 -p tcp -e 1040 -c 0 -i 8 -a 0 -x {0.0 3.0 5 ------- null}
- -t 1.04456 -s 2 -d 3 -p tcp -e 1040 -c 0 -i 8 -a 0 -x {0.0 3.0 5 ------- null}
h -t 1.04456 -s 2 -d 3 -p tcp -e 1040 -c 0 -i 8 -a 0 -x {0.0 3.0 -1 ------- null}
r -t 1.04488 -s 1 -d 0 -p ack -e 40 -c 0 -i 10 -a 0 -x {3.0 0.0 3 ------- null}
+ -t 1.04488 -s 0 -d 1 -p tcp -e 1040 -c 0 -i 11 -a 0 -x {0.0 3.0 7 ------- null}
- -t 1.04488 -s 0 -d 1 -p tcp -e 1040 -c 0 -i 11 -a 0 -x {0.0 3.0 7 ------- null}
h -t 1.04488 -s 0 -d 1 -p tcp -e 1040 -c 0 -i 11 -a 0 -x {0.0 3.0 -1 ------- null}
+ -t 1.04488 -s 0 -d 1 -p tcp -e 1040 -c 0 -i 12 -a 0 -x {0.0 3.0 8 ------- null}
r -t 1.04556 -s 2 -d 3 -p tcp -e 1040 -c 0 -i 6 -a 0 -x {0.0 3.0 4 ------- null}
+ -t 1.04556 -s 3 -d 2 -p ack -e 40 -c 0 -i 13 -a 0 -x {3.0 0.0 4 ------- null}
- -t 1.04556 -s 3 -d 2 -p ack -e 40 -c 0 -i 13 -a 0 -x {3.0 0.0 4 ------- null}
h -t 1.04556 -s 3 -d 2 -p ack -e 40 -c 0 -i 13 -a 0 -x {3.0 0.0 -1 ------- null}
r -t 1.04672 -s 3 -d 2 -p ack -e 40 -c 0 -i 13 -a 0 -x {3.0 0.0 4 ------- null}
+ -t 1.04672 -s 2 -d 1 -p ack -e 40 -c 0 -i 13 -a 0 -x {3.0 0.0 4 ------- null}
- -t 1.04672 -s 2 -d 1 -p ack -e 40 -c 0 -i 13 -a 0 -x {3.0 0.0 4 ------- null}
h -t 1.04672 -s 2 -d 1 -p ack -e 40 -c 0 -i 13 -a 0 -x {3.0 0.0 -1 ------- null}
r -t 1.04788 -s 2 -d 1 -p ack -e 40 -c 0 -i 13 -a 0 -x {3.0 0.0 4 ------- null}
+ -t 1.04788 -s 1 -d 0 -p ack -e 40 -c 0 -i 13 -a 0 -x {3.0 0.0 4 ------- null}
- -t 1.04788 -s 1 -d 0 -p ack -e 40 -c 0 -i 13 -a 0 -x {3.0 0.0 4 ------- null}
h -t 1.04788 -s 1 -d 0 -p ack -e 40 -c 0 -i 13 -a 0 -x {3.0 0.0 -1 ------- null}
r -t 1.04872 -s 1 -d 2 -p tcp -e 1040 -c 0 -i 9 -a 0 -x {0.0 3.0 6 ------- null}
+ -t 1.04872 -s 2 -d 3 -p tcp -e 1040 -c 0 -i 9 -a 0 -x {0.0 3.0 6 ------- null}
- -t 1.04872 -s 2 -d 3 -p tcp -e 1040 -c 0 -i 9 -a 0 -x {0.0 3.0 6 ------- null}
h -t 1.04872 -s 2 -d 3 -p tcp -e 1040 -c 0 -i 9 -a 0 -x {0.0 3.0 -1 ------- null}
- -t 1.04904 -s 0 -d 1 -p tcp -e 1040 -c 0 -i 12 -a 0 -x {0.0 3.0 8 ------- null}
h -t 1.04904 -s 0 -d 1 -p tcp -e 1040 -c 0 -i 12 -a 0 -x {0.0 3.0 -1 ------- null}
r -t 1.04904 -s 1 -d 0 -p ack -e 40 -c 0 -i 13 -a 0 -x {3.0 0.0 4 ------- null}
+ -t 1.04904 -s 0 -d 1 -p tcp -e 1040 -c 0 -i 14 -a 0 -x {0.0 3.0 9 ------- null}
+ -t 1.04904 -s 0 -d 1 -p tcp -e 1040 -c 0 -i 15 -a 0 -x {0.0 3.0 10 ------- null}
r -t 1.04972 -s 2 -d 3 -p tcp -e 1040 -c 0 -i 8 -a 0 -x {0.0 3.0 5 ------- null}
+ -t 1.04972 -s 3 -d 2 -p ack -e 40 -c 0 -i 16 -a 0 -x {3.0 0.0 5 ------- null}
- -t 1.04972 -s 3 -d 2 -p ack -e 40 -c 0 -i 16 -a 0 -x {3.0 0.0 5 ------- null}
h -t 1.04972 -s 3 -d 2 -p ack -e 40 -c 0 -i 16 -a 0 -x {3.0 0.0 -1 ------- null}
r -t 1.05004 -s 0 -d 1 -p tcp -e 1040 -c 0 -i 11 -a 0 -x {0.0 3.0 7 ------- null}
+ -t 1.05004 -s 1 -d 2 -p tcp -e 1040 -c 0 -i 11 -a 0 -x {0.0 3.0 7 ------- null}
- -t 1.05004 -s 1 -d 2 -p tcp -e 1040 -c 0 -i 11 -a 0 -x {0.0 3.0 7 ------- null}
h -t 1.05004 -s 1 -d 2 -p tcp -e 1040 -c 0 -i 11 -a 0 -x {0.0 3.0 -1 ------- null}
r -t 1.05088 -s 3 -d 2 -p ack -e 40 -c 0 -i 16 -a 0 -x {3.0 0.0 5 ------- null}
+ -t 1.05088 -s 2 -d 1 -p ack -e 40 -c 0 -i 16 -a 0 -x {3.0 0.0 5 ------- null}
- -t 1.05088 -s 2 -d 1 -p ack -e 40 -c 0 -i 16 -a 0 -x {3.0 0.0 5 ------- null}
h -t 1.05088 -s 2 -d 1 -p ack -e 40 -c 0 -i 16 -a 0 -x {3.0 0.0 -1 ------- null}
r -t 1.05204 -s 2 -d 1 -p ack -e 40 -c 0 -i 16 -a 0 -x {3.0 0.0 5 ------- null}
+ -t 1.05204 -s 1 -d 0 -p ack -e 40 -c 0 -i 16 -a 0 -x {3.0 0.0 5 ------- null}
- -t 1.05204 -s 1 -d 0 -p ack -e 40 -c 0 -i 16 -a 0 -x {3.0 0.0 5 ------- null}
h -t 1.05204 -s 1 -d 0 -p ack -e 40 -c 0 -i 16 -a 0 -x {3.0 0.0 -1 ------- null}
- -t 1.0532 -s 0 -d 1 -p tcp -e 1040 -c 0 -i 14 -a 0 -x {0.0 3.0 9 ------- null}
h -t 1.0532 -s 0 -d 1 -p tcp -e 1040 -c 0 -i 14 -a 0 -x {0.0 3.0 -1 ------- null}
r -t 1.0532 -s 1 -d 0 -p ack -e 40 -c 0 -i 16 -a 0 -x {3.0 0.0 5 ------- null}
+ -t 1.0532 -s 0 -d 1 -p tcp -e 1040 -c 0 -i 17 -a 0 -x {0.0 3.0 11 ------- null}
+ -t 1.0532 -s 0 -d 1 -p tcp -e 1040 -c 0 -i 18 -a 0 -x {0.0 3.0 12 ------- null}
r -t 1.05388 -s 2 -d 3 -p tcp -e 1040 -c 0 -i 9 -a 0 -x {0.0 3.0 6 ------- null}
+ -t 1.05388 -s 3 -d 2 -p ack -e 40 -c 0 -i 19 -a 0 -x {3.0 0.0 6 ------- null}
- -t 1.05388 -s 3 -d 2 -p ack -e 40 -c 0 -i 19 -a 0 -x {3.0 0.0 6 ------- null}
h -t 1.05388 -s 3 -d 2 -p ack -e 40 -c 0 -i 19 -a 0 -x {3.0 0.0 -1 ------- null}
r -t 1.0542 -s 0 -d 1 -p tcp -e 1040 -c 0 -i 12 -a 0 -x {0.0 3.0 8 ------- null}
+ -t 1.0542 -s 1 -d 2 -p tcp -e 1040 -c 0 -i 12 -a 0 -x {0.0 3.0 8 ------- null}
- -t 1.0542 -s 1 -d 2 -p tcp -e 1040 -c 0 -i 12 -a 0 -x {0.0 3.0 8 ------- null}
h -t 1.0542 -s 1 -d 2 -p tcp -e 1040 -c 0 -i 12 -a 0 -x {0.0 3.0 -1 ------- null}
r -t 1.05504 -s 3 -d 2 -p ack -e 40 -c 0 -i 19 -a 0 -x {3.0 0.0 6 ------- null}
+ -t 1.05504 -s 2 -d 1 -p ack -e 40 -c 0 -i 19 -a 0 -x {3.0 0.0 6 ------- null}
- -t 1.05504 -s 2 -d 1 -p ack -e 40 -c 0 -i 19 -a 0 -x {3.0 0.0 6 ------- null}
h -t 1.05504 -s 2 -d 1 -p ack -e 40 -c 0 -i 19 -a 0 -x {3.0 0.0 -1 ------- null}
r -t 1.0552 -s 1 -d 2 -p tcp -e 1040 -c 0 -i 11 -a 0 -x {0.0 3.0 7 ------- null}
+ -t 1.0552 -s 2 -d 3 -p tcp -e 1040 -c 0 -i 11 -a 0 -x {0.0 3.0 7 ------- null}
- -t 1.0552 -s 2 -d 3 -p tcp -e 1040 -c 0 -i 11 -a 0 -x {0.0 3.0 7 ------- null}
h -t 1.0552 -s 2 -d 3 -p tcp -e 1040 -c 0 -i 11 -a 0 -x {0.0 3.0 -1 ------- null}
r -t 1.0562 -s 2 -d 1 -p ack -e 40 -c 0 -i 19 -a 0 -x {3.0 0.0 6 ------- null}
+ -t 1.0562 -s 1 -d 0 -p ack -e 40 -c 0 -i 19 -a 0 -x {3.0 0.0 6 ------- null}
- -t 1.0562 -s 1 -d 0 -p ack -e 40 -c 0 -i 19 -a 0 -x {3.0 0.0 6 ------- null}
h -t 1.0562 -s 1 -d 0 -p ack -e 40 -c 0 -i 19 -a 0 -x {3.0 0.0 -1 ------- null}
- -t 1.05736 -s 0 -d 1 -p tcp -e 1040 -c 0 -i 15 -a 0 -x {0.0 3.0 10 ------- null}
h -t 1.05736 -s 0 -d 1 -p tcp -e 1040 -c 0 -i 15 -a 0 -x {0.0 3.0 -1 ------- null}
r -t 1.05736 -s 1 -d 0 -p ack -e 40 -c 0 -i 19 -a 0 -x {3.0 0.0 6 ------- null}
+ -t 1.05736 -s 0 -d 1 -p tcp -e 1040 -c 0 -i 20 -a 0 -x {0.0 3.0 13 ------- null}
+ -t 1.05736 -s 0 -d 1 -p tcp -e 1040 -c 0 -i 21 -a 0 -x {0.0 3.0 14 ------- null}
r -t 1.05836 -s 0 -d 1 -p tcp -e 1040 -c 0 -i 14 -a 0 -x {0.0 3.0 9 ------- null}
+ -t 1.05836 -s 1 -d 2 -p tcp -e 1040 -c 0 -i 14 -a 0 -x {0.0 3.0 9 ------- null}
- -t 1.05836 -s 1 -d 2 -p tcp -e 1040 -c 0 -i 14 -a 0 -x {0.0 3.0 9 ------- null}
h -t 1.05836 -s 1 -d 2 -p tcp -e 1040 -c 0 -i 14 -a 0 -x {0.0 3.0 -1 ------- null}
r -t 1.05936 -s 1 -d 2 -p tcp -e 1040 -c 0 -i 12 -a 0 -x {0.0 3.0 8 ------- null}
+ -t 1.05936 -s 2 -d 3 -p tcp -e 1040 -c 0 -i 12 -a 0 -x {0.0 3.0 8 ------- null}
- -t 1.05936 -s 2 -d 3 -p tcp -e 1040 -c 0 -i 12 -a 0 -x {0.0 3.0 8 ------- null}
h -t 1.05936 -s 2 -d 3 -p tcp -e 1040 -c 0 -i 12 -a 0 -x {0.0 3.0 -1 ------- null}
r -t 1.06036 -s 2 -d 3 -p tcp -e 1040 -c 0 -i 11 -a 0 -x {0.0 3.0 7 ------- null}
+ -t 1.06036 -s 3 -d 2 -p ack -e 40 -c 0 -i 22 -a 0 -x {3.0 0.0 7 ------- null}
- -t 1.06036 -s 3 -d 2 -p ack -e 40 -c 0 -i 22 -a 0 -x {3.0 0.0 7 ------- null}
h -t 1.06036 -s 3 -d 2 -p ack -e 40 -c 0 -i 22 -a 0 -x {3.0 0.0 -1 ------- null}
- -t 1.06152 -s 0 -d 1 -p tcp -e 1040 -c 0 -i 17 -a 0 -x {0.0 3.0 11 ------- null}
h -t 1.06152 -s 0 -d 1 -p tcp -e 1040 -c 0 -i 17 -a 0 -x {0.0 3.0 -1 ------- null}
r -t 1.06152 -s 3 -d 2 -p ack -e 40 -c 0 -i 22 -a 0 -x {3.0 0.0 7 ------- null}
+ -t 1.06152 -s 2 -d 1 -p ack -e 40 -c 0 -i 22 -a 0 -x {3.0 0.0 7 ------- null}
- -t 1.06152 -s 2 -d 1 -p ack -e 40 -c 0 -i 22 -a 0 -x {3.0 0.0 7 ------- null}
h -t 1.06152 -s 2 -d 1 -p ack -e 40 -c 0 -i 22 -a 0 -x {3.0 0.0 -1 ------- null}
r -t 1.06252 -s 0 -d 1 -p tcp -e 1040 -c 0 -i 15 -a 0 -x {0.0 3.0 10 ------- null}
+ -t 1.06252 -s 1 -d 2 -p tcp -e 1040 -c 0 -i 15 -a 0 -x {0.0 3.0 10 ------- null}
- -t 1.06252 -s 1 -d 2 -p tcp -e 1040 -c 0 -i 15 -a 0 -x {0.0 3.0 10 ------- null}
h -t 1.06252 -s 1 -d 2 -p tcp -e 1040 -c 0 -i 15 -a 0 -x {0.0 3.0 -1 ------- null}
r -t 1.06268 -s 2 -d 1 -p ack -e 40 -c 0 -i 22 -a 0 -x {3.0 0.0 7 ------- null}
+ -t 1.06268 -s 1 -d 0 -p ack -e 40 -c 0 -i 22 -a 0 -x {3.0 0.0 7 ------- null}
- -t 1.06268 -s 1 -d 0 -p ack -e 40 -c 0 -i 22 -a 0 -x {3.0 0.0 7 ------- null}
h -t 1.06268 -s 1 -d 0 -p ack -e 40 -c 0 -i 22 -a 0 -x {3.0 0.0 -1 ------- null}
r -t 1.06352 -s 1 -d 2 -p tcp -e 1040 -c 0 -i 14 -a 0 -x {0.0 3.0 9 ------- null}
+ -t 1.06352 -s 2 -d 3 -p tcp -e 1040 -c 0 -i 14 -a 0 -x {0.0 3.0 9 ------- null}
- -t 1.06352 -s 2 -d 3 -p tcp -e 1040 -c 0 -i 14 -a 0 -x {0.0 3.0 9 ------- null}
h -t 1.06352 -s 2 -d 3 -p tcp -e 1040 -c 0 -i 14 -a 0 -x {0.0 3.0 -1 ------- null}
r -t 1.06384 -s 1 -d 0 -p ack -e 40 -c 0 -i 22 -a 0 -x {3.0 0.0 7 ------- null}
+ -t 1.06384 -s 0 -d 1 -p tcp -e 1040 -c 0 -i 23 -a 0 -x {0.0 3.0 15 ------- null}
+ -t 1.06384 -s 0 -d 1 -p tcp -e 1040 -c 0 -i 24 -a 0 -x {0.0 3.0 16 ------- null}
r -t 1.06452 -s 2 -d 3 -p tcp -e 1040 -c 0 -i 12 -a 0 -x {0.0 3.0 8 ------- null}
+ -t 1.06452 -s 3 -d 2 -p ack -e 40 -c 0 -i 25 -a 0 -x {3.0 0.0 8 ------- null}
- -t 1.06452 -s 3 -d 2 -p ack -e 40 -c 0 -i 25 -a 0 -x {3.0 0.0 8 ------- null}
h -t 1.06452 -s 3 -d 2 -p ack -e 40 -c 0 -i 25 -a 0 -x {3.0 0.0 -1 ------- null}
- -t 1.06568 -s 0 -d 1 -p tcp -e 1040 -c 0 -i 18 -a 0 -x {0.0 3.0 12 ------- null}
h -t 1.06568 -s 0 -d 1 -p tcp -e 1040 -c 0 -i 18 -a 0 -x {0.0 3.0 -1 ------- null}
r -t 1.06568 -s 3 -d 2 -p ack -e 40 -c 0 -i 25 -a 0 -x {3.0 0.0 8 ------- null}
+ -t 1.06568 -s 2 -d 1 -p ack -e 40 -c 0 -i 25 -a 0 -x {3.0 0.0 8 ------- null}
- -t 1.06568 -s 2 -d 1 -p ack -e 40 -c 0 -i 25 -a 0 -x {3.0 0.0 8 ------- null}
h -t 1.06568 -s 2 -d 1 -p ack -e 40 -c 0 -i 25 -a 0 -x {3.0 0.0 -1 ------- null}
r -t 1.06668 -s 0 -d 1 -p tcp -e 1040 -c 0 -i 17 -a 0 -x {0.0 3.0 11 ------- null}
+ -t 1.06668 -s 1 -d 2 -p tcp -e 1040 -c 0 -i 17 -a 0 -x {0.0 3.0 11 ------- null}
- -t 1.06668 -s 1 -d 2 -p tcp -e 1040 -c 0 -i 17 -a 0 -x {0.0 3.0 11 ------- null}
h -t 1.06668 -s 1 -d 2 -p tcp -e 1040 -c 0 -i 17 -a 0 -x {0.0 3.0 -1 ------- null}
r -t 1.06684 -s 2 -d 1 -p ack -e 40 -c 0 -i 25 -a 0 -x {3.0 0.0 8 ------- null}
+ -t 1.06684 -s 1 -d 0 -p ack -e 40 -c 0 -i 25 -a 0 -x {3.0 0.0 8 ------- null}
- -t 1.06684 -s 1 -d 0 -p ack -e 40 -c 0 -i 25 -a 0 -x {3.0 0.0 8 ------- null}
h -t 1.06684 -s 1 -d 0 -p ack -e 40 -c 0 -i 25 -a 0 -x {3.0 0.0 -1 ------- null}
r -t 1.06768 -s 1 -d 2 -p tcp -e 1040 -c 0 -i 15 -a 0 -x {0.0 3.0 10 ------- null}
+ -t 1.06768 -s 2 -d 3 -p tcp -e 1040 -c 0 -i 15 -a 0 -x {0.0 3.0 10 ------- null}
- -t 1.06768 -s 2 -d 3 -p tcp -e 1040 -c 0 -i 15 -a 0 -x {0.0 3.0 10 ------- null}
h -t 1.06768 -s 2 -d 3 -p tcp -e 1040 -c 0 -i 15 -a 0 -x {0.0 3.0 -1 ------- null}
r -t 1.068 -s 1 -d 0 -p ack -e 40 -c 0 -i 25 -a 0 -x {3.0 0.0 8 ------- null}
+ -t 1.068 -s 0 -d 1 -p tcp -e 1040 -c 0 -i 26 -a 0 -x {0.0 3.0 17 ------- null}
+ -t 1.068 -s 0 -d 1 -p tcp -e 1040 -c 0 -i 27 -a 0 -x {0.0 3.0 18 ------- null}
r -t 1.06868 -s 2 -d 3 -p tcp -e 1040 -c 0 -i 14 -a 0 -x {0.0 3.0 9 ------- null}
+ -t 1.06868 -s 3 -d 2 -p ack -e 40 -c 0 -i 28 -a 0 -x {3.0 0.0 9 ------- null}
- -t 1.06868 -s 3 -d 2 -p ack -e 40 -c 0 -i 28 -a 0 -x {3.0 0.0 9 ------- null}
h -t 1.06868 -s 3 -d 2 -p ack -e 40 -c 0 -i 28 -a 0 -x {3.0 0.0 -1 ------- null}
- -t 1.06984 -s 0 -d 1 -p tcp -e 1040 -c 0 -i 20 -a 0 -x {0.0 3.0 13 ------- null}
h -t 1.06984 -s 0 -d 1 -p tcp -e 1040 -c 0 -i 20 -a 0 -x {0.0 3.0 -1 ------- null}
r -t 1.06984 -s 3 -d 2 -p ack -e 40 -c 0 -i 28 -a 0 -x {3.0 0.0 9 ------- null}
+ -t 1.06984 -s 2 -d 1 -p ack -e 40 -c 0 -i 28 -a 0 -x {3.0 0.0 9 ------- null}
- -t 1.06984 -s 2 -d 1 -p ack -e 40 -c 0 -i 28 -a 0 -x {3.0 0.0 9 ------- null}
h -t 1.06984 -s 2 -d 1 -p ack -e 40 -c 0 -i 28 -a 0 -x {3.0 0.0 -1 ------- null}
r -t 1.07084 -s 0 -d 1 -p tcp -e 1040 -c 0 -i 18 -a 0 -x {0.0 3.0 12 ------- null}
+ -t 1.07084 -s 1 -d 2 -p tcp -e 1040 -c 0 -i 18 -a 0 -x {0.0 3.0 12 ------- null}
- -t 1.07084 -s 1 -d 2 -p tcp -e 1040 -c 0 -i 18 -a 0 -x {0.0 3.0 12 ------- null}
h -t 1.07084 -s 1 -d 2 -p tcp -e 1040 -c 0 -i 18 -a 0 -x {0.0 3.0 -1 ------- null}
r -t 1.071 -s 2 -d 1 -p ack -e 40 -c 0 -i 28 -a 0 -x {3.0 0.0 9 ------- null}
+ -t 1.071 -s 1 -d 0 -p ack -e 40 -c 0 -i 28 -a 0 -x {3.0 0.0 9 ------- null}
- -t 1.071 -s 1 -d 0 -p ack -e 40 -c 0 -i 28 -a 0 -x {3.0 0.0 9 ------- null}
h -t 1.071 -s 1 -d 0 -p ack -e 40 -c 0 -i 28 -a 0 -x {3.0 0.0 -1 ------- null}
r -t 1.07184 -s 1 -d 2 -p tcp -e 1040 -c 0 -i 17 -a 0 -x {0.0 3.0 11 ------- null}
+ -t 1.07184 -s 2 -d 3 -p tcp -e 1040 -c 0 -i 17 -a 0 -x {0.0 3.0 11 ------- null}
- -t 1.07184 -s 2 -d 3 -p tcp -e 1040 -c 0 -i 17 -a 0 -x {0.0 3.0 11 ------- null}
h -t 1.07184 -s 2 -d 3 -p tcp -e 1040 -c 0 -i 17 -a 0 -x {0.0 3.0 -1 ------- null}
r -t 1.07216 -s 1 -d 0 -p ack -e 40 -c 0 -i 28 -a 0 -x {3.0 0.0 9 ------- null}
+ -t 1.07216 -s 0 -d 1 -p tcp -e 1040 -c 0 -i 29 -a 0 -x {0.0 3.0 19 ------- null}
+ -t 1.07216 -s 0 -d 1 -p tcp -e 1040 -c 0 -i 30 -a 0 -x {0.0 3.0 20 ------- null}
r -t 1.07284 -s 2 -d 3 -p tcp -e 1040 -c 0 -i 15 -a 0 -x {0.0 3.0 10 ------- null}
+ -t 1.07284 -s 3 -d 2 -p ack -e 40 -c 0 -i 31 -a 0 -x {3.0 0.0 10 ------- null}
- -t 1.07284 -s 3 -d 2 -p ack -e 40 -c 0 -i 31 -a 0 -x {3.0 0.0 10 ------- null}
h -t 1.07284 -s 3 -d 2 -p ack -e 40 -c 0 -i 31 -a 0 -x {3.0 0.0 -1 ------- null}
- -t 1.074 -s 0 -d 1 -p tcp -e 1040 -c 0 -i 21 -a 0 -x {0.0 3.0 14 ------- null}
h -t 1.074 -s 0 -d 1 -p tcp -e 1040 -c 0 -i 21 -a 0 -x {0.0 3.0 -1 ------- null}
r -t 1.074 -s 3 -d 2 -p ack -e 40 -c 0 -i 31 -a 0 -x {3.0 0.0 10 ------- null}
+ -t 1.074 -s 2 -d 1 -p ack -e 40 -c 0 -i 31 -a 0 -x {3.0 0.0 10 ------- null}
- -t 1.074 -s 2 -d 1 -p ack -e 40 -c 0 -i 31 -a 0 -x {3.0 0.0 10 ------- null}
h -t 1.074 -s 2 -d 1 -p ack -e 40 -c 0 -i 31 -a 0 -x {3.0 0.0 -1 ------- null}
r -t 1.075 -s 0 -d 1 -p tcp -e 1040 -c 0 -i 20 -a 0 -x {0.0 3.0 13 ------- null}
+ -t 1.075 -s 1 -d 2 -p tcp -e 1040 -c 0 -i 20 -a 0 -x {0.0 3.0 13 ------- null}
- -t 1.075 -s 1 -d 2 -p tcp -e 1040 -c 0 -i 20 -a 0 -x {0.0 3.0 13 ------- null}
h -t 1.075 -s 1 -d 2 -p tcp -e 1040 -c 0 -i 20 -a 0 -x {0.0 3.0 -1 ------- null}
r -t 1.07516 -s 2 -d 1 -p ack -e 40 -c 0 -i 31 -a 0 -x {3.0 0.0 10 ------- null}
+ -t 1.07516 -s 1 -d 0 -p ack -e 40 -c 0 -i 31 -a 0 -x {3.0 0.0 10 ------- null}
- -t 1.07516 -s 1 -d 0 -p ack -e 40 -c 0 -i 31 -a 0 -x {3.0 0.0 10 ------- null}
h -t 1.07516 -s 1 -d 0 -p ack -e 40 -c 0 -i 31 -a 0 -x {3.0 0.0 -1 ------- null}
r -t 1.076 -s 1 -d 2 -p tcp -e 1040 -c 0 -i 18 -a 0 -x {0.0 3.0 12 ------- null}
+ -t 1.076 -s 2 -d 3 -p tcp -e 1040 -c 0 -i 18 -a 0 -x {0.0 3.0 12 ------- null}
- -t 1.076 -s 2 -d 3 -p tcp -e 1040 -c 0 -i 18 -a 0 -x {0.0 3.0 12 ------- null}
h -t 1.076 -s 2 -d 3 -p tcp -e 1040 -c 0 -i 18 -a 0 -x {0.0 3.0 -1 ------- null}
r -t 1.07632 -s 1 -d 0 -p ack -e 40 -c 0 -i 31 -a 0 -x {3.0 0.0 10 ------- null}
+ -t 1.07632 -s 0 -d 1 -p tcp -e 1040 -c 0 -i 32 -a 0 -x {0.0 3.0 21 ------- null}
+ -t 1.07632 -s 0 -d 1 -p tcp -e 1040 -c 0 -i 33 -a 0 -x {0.0 3.0 22 ------- null}
r -t 1.077 -s 2 -d 3 -p tcp -e 1040 -c 0 -i 17 -a 0 -x {0.0 3.0 11 ------- null}
+ -t 1.077 -s 3 -d 2 -p ack -e 40 -c 0 -i 34 -a 0 -x {3.0 0.0 11 ------- null}
- -t 1.077 -s 3 -d 2 -p ack -e 40 -c 0 -i 34 -a 0 -x {3.0 0.0 11 ------- null}
h -t 1.077 -s 3 -d 2 -p ack -e 40 -c 0 -i 34 -a 0 -x {3.0 0.0 -1 ------- null}
- -t 1.07816 -s 0 -d 1 -p tcp -e 1040 -c 0 -i 23 -a 0 -x {0.0 3.0 15 ------- null}
h -t 1.07816 -s 0 -d 1 -p tcp -e 1040 -c 0 -i 23 -a 0 -x {0.0 3.0 -1 ------- null}
r -t 1.07816 -s 3 -d 2 -p ack -e 40 -c 0 -i 34 -a 0 -x {3.0 0.0 11 ------- null}
+ -t 1.07816 -s 2 -d 1 -p ack -e 40 -c 0 -i 34 -a 0 -x {3.0 0.0 11 ------- null}
- -t 1.07816 -s 2 -d 1 -p ack -e 40 -c 0 -i 34 -a 0 -x {3.0 0.0 11 ------- null}
h -t 1.07816 -s 2 -d 1 -p ack -e 40 -c 0 -i 34 -a 0 -x {3.0 0.0 -1 ------- null}
r -t 1.07916 -s 0 -d 1 -p tcp -e 1040 -c 0 -i 21 -a 0 -x {0.0 3.0 14 ------- null}
+ -t 1.07916 -s 1 -d 2 -p tcp -e 1040 -c 0 -i 21 -a 0 -x {0.0 3.0 14 ------- null}
- -t 1.07916 -s 1 -d 2 -p tcp -e 1040 -c 0 -i 21 -a 0 -x {0.0 3.0 14 ------- null}
h -t 1.07916 -s 1 -d 2 -p tcp -e 1040 -c 0 -i 21 -a 0 -x {0.0 3.0 -1 ------- null}
r -t 1.07932 -s 2 -d 1 -p ack -e 40 -c 0 -i 34 -a 0 -x {3.0 0.0 11 ------- null}
+ -t 1.07932 -s 1 -d 0 -p ack -e 40 -c 0 -i 34 -a 0 -x {3.0 0.0 11 ------- null}
- -t 1.07932 -s 1 -d 0 -p ack -e 40 -c 0 -i 34 -a 0 -x {3.0 0.0 11 ------- null}
h -t 1.07932 -s 1 -d 0 -p ack -e 40 -c 0 -i 34 -a 0 -x {3.0 0.0 -1 ------- null}
r -t 1.08016 -s 1 -d 2 -p tcp -e 1040 -c 0 -i 20 -a 0 -x {0.0 3.0 13 ------- null}
+ -t 1.08016 -s 2 -d 3 -p tcp -e 1040 -c 0 -i 20 -a 0 -x {0.0 3.0 13 ------- null}
- -t 1.08016 -s 2 -d 3 -p tcp -e 1040 -c 0 -i 20 -a 0 -x {0.0 3.0 13 ------- null}
h -t 1.08016 -s 2 -d 3 -p tcp -e 1040 -c 0 -i 20 -a 0 -x {0.0 3.0 -1 ------- null}
r -t 1.08048 -s 1 -d 0 -p ack -e 40 -c 0 -i 34 -a 0 -x {3.0 0.0 11 ------- null}
+ -t 1.08048 -s 0 -d 1 -p tcp -e 1040 -c 0 -i 35 -a 0 -x {0.0 3.0 23 ------- null}
+ -t 1.08048 -s 0 -d 1 -p tcp -e 1040 -c 0 -i 36 -a 0 -x {0.0 3.0 24 ------- null}
r -t 1.08116 -s 2 -d 3 -p tcp -e 1040 -c 0 -i 18 -a 0 -x {0.0 3.0 12 ------- null}
+ -t 1.08116 -s 3 -d 2 -p ack -e 40 -c 0 -i 37 -a 0 -x {3.0 0.0 12 ------- null}
- -t 1.08116 -s 3 -d 2 -p ack -e 40 -c 0 -i 37 -a 0 -x {3.0 0.0 12 ------- null}
h -t 1.08116 -s 3 -d 2 -p ack -e 40 -c 0 -i 37 -a 0 -x {3.0 0.0 -1 ------- null}
- -t 1.08232 -s 0 -d 1 -p tcp -e 1040 -c 0 -i 24 -a 0 -x {0.0 3.0 16 ------- null}
h -t 1.08232 -s 0 -d 1 -p tcp -e 1040 -c 0 -i 24 -a 0 -x {0.0 3.0 -1 ------- null}
r -t 1.08232 -s 3 -d 2 -p ack -e 40 -c 0 -i 37 -a 0 -x {3.0 0.0 12 ------- null}
+ -t 1.08232 -s 2 -d 1 -p ack -e 40 -c 0 -i 37 -a 0 -x {3.0 0.0 12 ------- null}
- -t 1.08232 -s 2 -d 1 -p ack -e 40 -c 0 -i 37 -a 0 -x {3.0 0.0 12 ------- null}
h -t 1.08232 -s 2 -d 1 -p ack -e 40 -c 0 -i 37 -a 0 -x {3.0 0.0 -1 ------- null}
r -t 1.08332 -s 0 -d 1 -p tcp -e 1040 -c 0 -i 23 -a 0 -x {0.0 3.0 15 ------- null}
+ -t 1.08332 -s 1 -d 2 -p tcp -e 1040 -c 0 -i 23 -a 0 -x {0.0 3.0 15 ------- null}
- -t 1.08332 -s 1 -d 2 -p tcp -e 1040 -c 0 -i 23 -a 0 -x {0.0 3.0 15 ------- null}
h -t 1.08332 -s 1 -d 2 -p tcp -e 1040 -c 0 -i 23 -a 0 -x {0.0 3.0 -1 ------- null}
r -t 1.08348 -s 2 -d 1 -p ack -e 40 -c 0 -i 37 -a 0 -x {3.0 0.0 12 ------- null}
+ -t 1.08348 -s 1 -d 0 -p ack -e 40 -c 0 -i 37 -a 0 -x {3.0 0.0 12 ------- null}
- -t 1.08348 -s 1 -d 0 -p ack -e 40 -c 0 -i 37 -a 0 -x {3.0 0.0 12 ------- null}
h -t 1.08348 -s 1 -d 0 -p ack -e 40 -c 0 -i 37 -a 0 -x {3.0 0.0 -1 ------- null}
r -t 1.08432 -s 1 -d 2 -p tcp -e 1040 -c 0 -i 21 -a 0 -x {0.0 3.0 14 ------- null}
+ -t 1.08432 -s 2 -d 3 -p tcp -e 1040 -c 0 -i 21 -a 0 -x {0.0 3.0 14 ------- null}
- -t 1.08432 -s 2 -d 3 -p tcp -e 1040 -c 0 -i 21 -a 0 -x {0.0 3.0 14 ------- null}
h -t 1.08432 -s 2 -d 3 -p tcp -e 1040 -c 0 -i 21 -a 0 -x {0.0 3.0 -1 ------- null}
r -t 1.08464 -s 1 -d 0 -p ack -e 40 -c 0 -i 37 -a 0 -x {3.0 0.0 12 ------- null}
+ -t 1.08464 -s 0 -d 1 -p tcp -e 1040 -c 0 -i 38 -a 0 -x {0.0 3.0 25 ------- null}
+ -t 1.08464 -s 0 -d 1 -p tcp -e 1040 -c 0 -i 39 -a 0 -x {0.0 3.0 26 ------- null}
r -t 1.08532 -s 2 -d 3 -p tcp -e 1040 -c 0 -i 20 -a 0 -x {0.0 3.0 13 ------- null}
+ -t 1.08532 -s 3 -d 2 -p ack -e 40 -c 0 -i 40 -a 0 -x {3.0 0.0 13 ------- null}
- -t 1.08532 -s 3 -d 2 -p ack -e 40 -c 0 -i 40 -a 0 -x {3.0 0.0 13 ------- null}
h -t 1.08532 -s 3 -d 2 -p ack -e 40 -c 0 -i 40 -a 0 -x {3.0 0.0 -1 ------- null}
- -t 1.08648 -s 0 -d 1 -p tcp -e 1040 -c 0 -i 26 -a 0 -x {0.0 3.0 17 ------- null}
h -t 1.08648 -s 0 -d 1 -p tcp -e 1040 -c 0 -i 26 -a 0 -x {0.0 3.0 -1 ------- null}
r -t 1.08648 -s 3 -d 2 -p ack -e 40 -c 0 -i 40 -a 0 -x {3.0 0.0 13 ------- null}
+ -t 1.08648 -s 2 -d 1 -p ack -e 40 -c 0 -i 40 -a 0 -x {3.0 0.0 13 ------- null}
- -t 1.08648 -s 2 -d 1 -p ack -e 40 -c 0 -i 40 -a 0 -x {3.0 0.0 13 ------- null}
h -t 1.08648 -s 2 -d 1 -p ack -e 40 -c 0 -i 40 -a 0 -x {3.0 0.0 -1 ------- null}